
                                 *****************
                                 * O   R   C   A *
                                 *****************

                                            #,                                       
                                            ###                                      
                                            ####                                     
                                            #####                                    
                                            ######                                   
                                           ########,                                 
                                     ,,################,,,,,                         
                               ,,#################################,,                 
                          ,,##########################################,,             
                       ,#########################################, ''#####,          
                    ,#############################################,,   '####,        
                  ,##################################################,,,,####,       
                ,###########''''           ''''###############################       
              ,#####''   ,,,,##########,,,,          '''####'''          '####       
            ,##' ,,,,###########################,,,                        '##       
           ' ,,###''''                  '''############,,,                           
         ,,##''                                '''############,,,,        ,,,,,,###''
      ,#''                                            '''#######################'''  
     '                                                          ''''####''''         
             ,#######,   #######,   ,#######,      ##                                
            ,#'     '#,  ##    ##  ,#'     '#,    #''#        ,####,    ,#,          
            ##       ##  ##   ,#'  ##            #'  '#       #'       ,# #          
            ##       ##  #######   ##           ,######,      #####,      #          
            '#,     ,#'  ##    ##  '#,     ,#' ,#      #,     #,   #      #          
             '#######'   ##     ##  '#######'  #'      '#     '####' #    #          



                #########################################################
                #                        -***-                          #
                #          Department of theory and spectroscopy        #
                #                                                       #
                #                      Frank Neese                      #
                #                                                       #
                #     Directorship, Architecture, Infrastructure        #
                #                    SHARK, DRIVERS                     #
                #        Core code/Algorithms in most modules           #
                #                                                       #
                #        Max Planck Institute fuer Kohlenforschung      #
                #                Kaiser Wilhelm Platz 1                 #
                #                 D-45470 Muelheim/Ruhr                 #
                #                      Germany                          #
                #                                                       #
                #                  All rights reserved                  #
                #                        -***-                          #
                #########################################################


                         Program Version 6.1.0  -  RELEASE   -


 With contributions from (in alphabetic order):
[Max-Planck-Institut fuer Kohlenforschung]                               
  Daniel Aravena         : Magnetic Suceptibility                        
  Michael Atanasov       : Ab Initio Ligand Field Theory (pilot matlab implementation)
  Alexander A. Auer      : GIAO ZORA, VPT2 properties, NMR spectrum      
  Ute Becker             : All parallelization in ORCA, NUMFREQ, NUMCALC 
  Giovanni Bistoni       : ED, misc. LED, open-shell LED, HFLD           
  Dmytro Bykov           : pre 5.0 version of the SCF Hessian            
  Marcos Casanova-Páez   : Triplet and SCS-CIS(D). UHF-(DLPNO)-IP/EA/STEOM-CCSD. UHF-CVS-IP/STEOM-CCSD   
  Vijay G. Chilkuri      : MRCI spin determinant printing, contributions to CSF-ICE 
  Pauline Colinet        : FMM embedding                                 
  Dipayan Datta          : RHF DLPNO-CCSD density                        
  Achintya Kumar Dutta   : EOM-CC, STEOM-CC                              
  Nicolas Foglia         : Exact transition moments, OPA infrastructure, MCD improvements    
  Dmitry Ganyushin       : Spin-Orbit,Spin-Spin,Magnetic field MRCI      
  Miquel Garcia-Rates    : C-PCM and meta-GGA Hessian, CCSD/C-PCM, Gaussian charge scheme 
  Tiago L. C. Gouveia    : GS-ROHF, GS-ROCIS                             
  Yang Guo               : DLPNO-NEVPT2, F12-NEVPT2, CIM, IAO-localization        
  Andreas Hansen         : Spin unrestricted coupled pair/coupled cluster methods 
  Ingolf Harden          : AUTO-CI MPn and infrastructure                
  Benjamin Helmich-Paris : MC-RPA, TRAH-(SCF,CASSCF), AVAS, COSX integrals, SCF dyn. polar., MC-PDFT, srDFT 
  Lee Huntington         : MR-EOM, pCC                                   
  Robert Izsak           : Overlap fitted RIJCOSX, COSX-SCS-MP3, EOM     
  Riya Kayal             : Wick's Theorem for AUTO-CI, AUTO-CI UHF-CCSDT 
  Emily Kempfer          : AUTO-CI RHF CISDT and CCSDT, approximate NEVPT4
  Christian Kollmar      : KDIIS, OOCD, Brueckner-CCSD(T), CCSD density, CASPT2, CASPT2-K, improved NEVPT2 
  Axel Koslowski         : Symmetry handling                             
  Simone Kossmann        : meta-GGA functionals, TD-DFT gradient, OOMP2, (MP2 Hessian; deprecated post 5.0) 
  Lucas Lang             : DCDCAS, Hyperfine gauge corrections, ICE-SOC+SSC
  Marvin Lechner         : AUTO-CI (C++ implementation), FIC-MRCC        
  Spencer Leger          : CASSCF response                               
  Dagmar Lenk            : GEPOL surface, SMD, ORCA-2-JSON               
  Dimitrios Liakos       : Extrapolation schemes; Compound Job, Property file
  Dimitrios Manganas     : Further ROCIS development; embedding schemes. LFT, Crystal Embedding 
  Dimitrios Pantazis     : SARC Basis sets                               
  Anastasios Papadopoulos: AUTO-CI, single reference methods and gradients 
  Taras Petrenko         : pre 6.0 DFT Hessian and TD-DFT gradient,  ECA, NRVS 
  Petra Pikulova         : Analytic Raman intensities                    
  Peter Pinski           : DLPNO-MP2, DLPNO-MP2 Gradient                 
  Shashank Vittal Rao    : ES-AILFT, MagRelax                            
  Christoph Reimann      : Effective Core Potentials                     
  Marius Retegan         : Local ZFS, SOC                                
  Christoph Riplinger    : Optimizer, TS searches, QM/MM, DLPNO-CCSD(T), (RO)-DLPNO pert. Triples 
  Michael Roemelt        : Original ROCIS implementation, recursive CI coupling coefficients
  Masaaki Saitow         : Open-shell DLPNO-CCSD energy and density      
  Barbara Sandhoefer     : DKH picture change effects                    
  Yorick L. A. Schmerwitz: GMF and freeze-and-release deltaSCF, NEB S-IDPP initial path                    
  Kantharuban Sivalingam : CASSCF convergence/infrastructure, NEVPT2, NEVPT3, NEVPT4(SD), FIC-MRCI and CEPA variants
  Bernardo de Souza      : ESD, SOC TD-DFT                               
  Georgi L. Stoychev     : AutoAux, RI-MP2 NMR, DLPNO-MP2 response, X2C  
  Van Anh Tran           : RI-MP2 g-tensors                              
  Willem Van den Heuvel  : Paramagnetic NMR                              
  Zikuan Wang            : NOTCH, Electric field optimization            
  Frank Wennmohs         : Technical directorship and infrastructure     
  Hang Xu                : AUTO-CI-Response properties                   
                                                                         
[FACCTs GmbH]                                                            
  Markus Bursch, Nicolas Foglia, Miquel Garcia-Rates, Ingolf Harden, Hagen Neugebauer, Anastasios Papadopoulos, 
  Christoph Riplinger, Bernardo de Souza, Georgi L. Stoychev                                                    
                                                                 
  APM, various basis sets, CI-OPT, improved COSX, DLPNO-Multilevel,           
  DOCKER, DRACO, updates on ESD, Fragmentator, GOAT, IRC, LR-CPCM, L-BFGS, MBIS, meta-GGA TD-DFT gradient, ML-optimized integration grids, 
  MM, NACMEs, nearIR, NEB, NEB-TS, NL-DFT gradient (VV10), 2- and 3-layer-ONIOM, interface openCOSMO-RS, QMMM,   
  Crystal-QMMM, RESP, rigid body optimization, SF, symmetry and pop. for TD-DFT, various functionals, SOLVATOR                                   
                                                                         
[Other institutions]                                                     
  V. Asgeirsson          : NEB                                           
  Christoph Bannwarth    : sTDA-DFT, sTD-DFT, PBEh-3c, B97-3c, D3        
  Giovanni Bistoni       : ETS/NOCV, ADLD/ADEX, COVALED                  
  Martin Brehm           : Molecular dynamics                            
  Ronald Cardenas        : ETS/NOCV                                      
  Martina Colucci        : COVALED                                       
  Sebastian Ehlert       : rSCAN, r2SCAN, r2SCAN-3c, D4, dhf basis sets  
  Marvin Friede          : D4 for Fr, Ra, Ac-Lr                          
  Lars Goerigk           : TD-DFT with DH, B97 family of functionals     
  Stefan Grimme          : VdW corrections, initial TS optimization, DFT functionals, gCP, sTDA/sTD-DF 
  Waldemar Hujo          : DFT-NL                                        
  H. Jonsson             : NEB                                           
  Holger Kruse           : gCP                                           
  Marcel Mueller         : wB97X-3c, vDZP basis set                      
  Hagen Neugebauer       : wr2SCAN, Native XTB                           
  Gianluca Regni         : ADLD/ADEX                                     
  Tobias Risthaus        : pre 6.0 range-separated hybrid DFT and stability analysis
  Lukas Wittmann         : regularized MP2, r2SCAN double-hybrids, wr2SCAN        
                                                                         
We gratefully acknowledge several colleagues who have allowed us to      
interface, adapt or use parts of their codes:                            
  Ed Valeev, F. Pavosevic, A. Kumar             : LibInt (2-el integral package), F12 methods 
  Garnet Chan, S. Sharma, J. Yang, R. Olivares  : DMRG                   
  Ulf Ekstrom                                   : XCFun DFT Library      
  Mihaly Kallay                                 : mrcc  (arbitrary order and MRCC methods)
  Frank Weinhold                                : gennbo (NPA and NBO analysis)           
  Simon Mueller                                 : openCOSMO-RS                            
  Christopher J. Cramer and Donald G. Truhlar   : smd solvation model                     
  S Lehtola, MJT Oliveira, MAL Marques          : LibXC Library                           
  Liviu Ungur et al                             : ANISO software                          


 Your calculation uses the libint2 library for the computation of 2-el integrals
 For citations please refer to: http://libint.valeyev.net

 Your ORCA version has been built with support for libXC version: 7.0.0
 For citations please refer to: https://libxc.gitlab.io

 This ORCA versions uses:
   CBLAS   interface :  Fast vector & matrix operations
   LAPACKE interface :  Fast linear algebra routines
   Shared memory     :  Shared parallel matrices


  ***********************************
  * Starting time: Mon Dec  8 21:52:41 2025
  * Host name:     RISHILAPTOP
  * Process ID:    7280
  * Working dir.:  C:\Users\srinr\OneDrive\Desktop\ChemLLM Research 2025-2026 Project
  ***********************************

Warning: RI is on but no J-basis has been assigned. Assigning Def2/J (nothing to worry about!)
================================================================================

----- Orbital basis set information -----
Your calculation utilizes the basis: def2-SVP
   F. Weigend and R. Ahlrichs, Phys. Chem. Chem. Phys. 7, 3297 (2005).

----- AuxJ basis set information -----
Your calculation utilizes the auxiliary basis: def2/J
   H-Rn: F. Weigend, Phys. Chem. Chem. Phys. 8, 1057 (2006).
   Fr-Lr: K. Eichkorn, F. Weigend, O. Treutler, R. Ahlrichs; Theor. Chem. Acc. 97, 119 (1997).

================================================================================
                                        WARNINGS
                       Please study these warnings very carefully!
================================================================================


WARNING: CIS/ROCIS methods need fully converged wavefunctions
  ===> : Setting SCFConvForced true
         You can overwrite this default with %scf ConvForced false 


================================================================================
                                       INPUT FILE
================================================================================
NAME = molecule.inp
|  1> ! BP86 def2-SVP TightSCF
|  2> 
|  3>     %tddft
|  4>         Nroots   10
|  5>         triplets true
|  6>     end
|  7> 
|  8>     * xyz 0 1
|  9>     C  -6.688267 -1.134538 -1.347644
| 10> C  -6.132215 -0.404000 -0.149004
| 11> C  -4.813741 -0.484051  0.216657
| 12> C  -4.276126  0.372079  1.405071
| 13> C  -5.418067  0.850760  2.341516
| 14> C  -6.596138  1.421550  1.558611
| 15> C  -7.177249  0.335060  0.670017
| 16> C  -3.538267  1.621996  0.876792
| 17> C  -3.332412 -0.464191  2.311524
| 18> C  -3.939472 -1.454035 -0.539006
| 19> C  -2.612318 -1.340143 -0.726619
| 20> C  -1.776673 -2.365515 -1.426407
| 21> C  -0.434169 -2.297952 -1.254420
| 22> C   0.546945 -3.236462 -1.835882
| 23> C   1.853892 -2.970797 -1.948536
| 24> C   2.504594 -1.674043 -1.629849
| 25> C   3.681892 -1.693475 -0.973689
| 26> C   4.441953 -0.488049 -0.592667
| 27> N   5.545367 -0.619191  0.079390
| 28> C   6.366509  0.477330  0.496141
| 29> C   7.084059  0.367614  1.696869
| 30> C   7.896819  1.426195  2.128293
| 31> C   8.009564  2.600158  1.373812
| 32> O   8.788306  3.652459  1.891324
| 33> C   8.984493  4.898897  1.232963
| 34> C   7.329448  2.685105  0.142967
| 35> C   6.506437  1.639102 -0.289356
| 36> C   1.901247 -0.378825 -2.126588
| 37> C  -2.446185 -3.417953 -2.288167
| 38> H  -7.780621 -0.943413 -1.491059
| 39> H  -6.162822 -0.814417 -2.278711
| 40> H  -6.591341 -2.231890 -1.221652
| 41> H  -5.053570  1.637400  3.046008
| 42> H  -5.802444  0.006239  2.952033
| 43> H  -6.297420  2.300898  0.958128
| 44> H  -7.377128  1.757387  2.271105
| 45> H  -7.926175  0.810320 -0.002274
| 46> H  -7.709090 -0.413073  1.297825
| 47> H  -2.649139  1.386441  0.270269
| 48> H  -4.187902  2.238524  0.219723
| 49> H  -3.171896  2.257679  1.717859
| 50> H  -2.936406  0.173167  3.123444
| 51> H  -2.428797 -0.842908  1.800432
| 52> H  -3.877576 -1.314023  2.761804
| 53> H  -4.423482 -2.327818 -0.958692
| 54> H  -2.079320 -0.495389 -0.338159
| 55> H  -0.052235 -1.514676 -0.605575
| 56> H   0.223025 -4.226831 -2.111254
| 57> H   2.493823 -3.786466 -2.261426
| 58> H   4.136978 -2.653653 -0.732414
| 59> H   4.054460  0.494097 -0.821978
| 60> H   6.993742 -0.523732  2.301224
| 61> H   8.419523  1.337843  3.070242
| 62> H   8.011788  5.304976  0.885889
| 63> H   9.413586  5.631074  1.941003
| 64> H   9.678569  4.770894  0.372897
| 65> H   7.450368  3.552376 -0.502763
| 66> H   6.004874  1.729125 -1.239745
| 67> H   2.637275  0.201379 -2.727111
| 68> H   1.538491  0.206628 -1.244048
| 69> H   1.033909 -0.588814 -2.785284
| 70> H  -3.203609 -2.943052 -2.927979
| 71> H  -2.890144 -4.206722 -1.643680
| 72> H  -1.749521 -3.894658 -2.999984
| 73>     *
| 74>                               ****END OF INPUT****
================================================================================

                       ****************************
                       * Single Point Calculation *
                       ****************************

---------------------------------
CARTESIAN COORDINATES (ANGSTROEM)
---------------------------------
  C     -6.688267   -1.134538   -1.347644
  C     -6.132215   -0.404000   -0.149004
  C     -4.813741   -0.484051    0.216657
  C     -4.276126    0.372079    1.405071
  C     -5.418067    0.850760    2.341516
  C     -6.596138    1.421550    1.558611
  C     -7.177249    0.335060    0.670017
  C     -3.538267    1.621996    0.876792
  C     -3.332412   -0.464191    2.311524
  C     -3.939472   -1.454035   -0.539006
  C     -2.612318   -1.340143   -0.726619
  C     -1.776673   -2.365515   -1.426407
  C     -0.434169   -2.297952   -1.254420
  C      0.546945   -3.236462   -1.835882
  C      1.853892   -2.970797   -1.948536
  C      2.504594   -1.674043   -1.629849
  C      3.681892   -1.693475   -0.973689
  C      4.441953   -0.488049   -0.592667
  N      5.545367   -0.619191    0.079390
  C      6.366509    0.477330    0.496141
  C      7.084059    0.367614    1.696869
  C      7.896819    1.426195    2.128293
  C      8.009564    2.600158    1.373812
  O      8.788306    3.652459    1.891324
  C      8.984493    4.898897    1.232963
  C      7.329448    2.685105    0.142967
  C      6.506437    1.639102   -0.289356
  C      1.901247   -0.378825   -2.126588
  C     -2.446185   -3.417953   -2.288167
  H     -7.780621   -0.943413   -1.491059
  H     -6.162822   -0.814417   -2.278711
  H     -6.591341   -2.231890   -1.221652
  H     -5.053570    1.637400    3.046008
  H     -5.802444    0.006239    2.952033
  H     -6.297420    2.300898    0.958128
  H     -7.377128    1.757387    2.271105
  H     -7.926175    0.810320   -0.002274
  H     -7.709090   -0.413073    1.297825
  H     -2.649139    1.386441    0.270269
  H     -4.187902    2.238524    0.219723
  H     -3.171896    2.257679    1.717859
  H     -2.936406    0.173167    3.123444
  H     -2.428797   -0.842908    1.800432
  H     -3.877576   -1.314023    2.761804
  H     -4.423482   -2.327818   -0.958692
  H     -2.079320   -0.495389   -0.338159
  H     -0.052235   -1.514676   -0.605575
  H      0.223025   -4.226831   -2.111254
  H      2.493823   -3.786466   -2.261426
  H      4.136978   -2.653653   -0.732414
  H      4.054460    0.494097   -0.821978
  H      6.993742   -0.523732    2.301224
  H      8.419523    1.337843    3.070242
  H      8.011788    5.304976    0.885889
  H      9.413586    5.631074    1.941003
  H      9.678569    4.770894    0.372897
  H      7.450368    3.552376   -0.502763
  H      6.004874    1.729125   -1.239745
  H      2.637275    0.201379   -2.727111
  H      1.538491    0.206628   -1.244048
  H      1.033909   -0.588814   -2.785284
  H     -3.203609   -2.943052   -2.927979
  H     -2.890144   -4.206722   -1.643680
  H     -1.749521   -3.894658   -2.999984

----------------------------
CARTESIAN COORDINATES (A.U.)
----------------------------
  NO LB      ZA    FRAG     MASS         X           Y           Z
   0 C     6.0000    0    12.011  -12.638993   -2.143966   -2.546678
   1 C     6.0000    0    12.011  -11.588207   -0.763449   -0.281577
   2 C     6.0000    0    12.011   -9.096652   -0.914724    0.409422
   3 C     6.0000    0    12.011   -8.080707    0.703127    2.655199
   4 C     6.0000    0    12.011  -10.238663    1.607703    4.424824
   5 C     6.0000    0    12.011  -12.464894    2.686340    2.945348
   6 C     6.0000    0    12.011  -13.563035    0.633172    1.266149
   7 C     6.0000    0    12.011   -6.686356    3.065128    1.656897
   8 C     6.0000    0    12.011   -6.297346   -0.877194    4.368147
   9 C     6.0000    0    12.011   -7.444523   -2.747728   -1.018574
  10 C     6.0000    0    12.011   -4.936566   -2.532503   -1.373111
  11 C     6.0000    0    12.011   -3.357425   -4.470176   -2.695519
  12 C     6.0000    0    12.011   -0.820461   -4.342500   -2.370510
  13 C     6.0000    0    12.011    1.033576   -6.116027   -3.469314
  14 C     6.0000    0    12.011    3.503348   -5.613993   -3.682199
  15 C     6.0000    0    12.011    4.732997   -3.163483   -3.079968
  16 C     6.0000    0    12.011    6.957768   -3.200204   -1.840006
  17 C     6.0000    0    12.011    8.394075   -0.922279   -1.119978
  18 N     7.0000    0    14.007   10.479225   -1.170101    0.150025
  19 C     6.0000    0    12.011   12.030958    0.902023    0.937571
  20 C     6.0000    0    12.011   13.386931    0.694690    3.206618
  21 C     6.0000    0    12.011   14.922825    2.695118    4.021891
  22 C     6.0000    0    12.011   15.135882    4.913587    2.596128
  23 O     8.0000    0    15.999   16.607492    6.902147    3.574084
  24 C     6.0000    0    12.011   16.978231    9.257574    2.329962
  25 C     6.0000    0    12.011   13.850649    5.074113    0.270168
  26 C     6.0000    0    12.011   12.295384    3.097454   -0.546804
  27 C     6.0000    0    12.011    3.592836   -0.715876   -4.018669
  28 C     6.0000    0    12.011   -4.622620   -6.458995   -4.324009
  29 H     1.0000    0     1.008  -14.703243   -1.782792   -2.817693
  30 H     1.0000    0     1.008  -11.646046   -1.539025   -4.306140
  31 H     1.0000    0     1.008  -12.455829   -4.217661   -2.308588
  32 H     1.0000    0     1.008   -9.549863    3.094238    5.756121
  33 H     1.0000    0     1.008  -10.965030    0.011790    5.578534
  34 H     1.0000    0     1.008  -11.900399    4.348067    1.810600
  35 H     1.0000    0     1.008  -13.940752    3.320980    4.291766
  36 H     1.0000    0     1.008  -14.978300    1.531283   -0.004297
  37 H     1.0000    0     1.008  -14.568069   -0.780595    2.452534
  38 H     1.0000    0     1.008   -5.006147    2.619994    0.510734
  39 H     1.0000    0     1.008   -7.913988    4.230197    0.415216
  40 H     1.0000    0     1.008   -5.994015    4.266395    3.246283
  41 H     1.0000    0     1.008   -5.549003    0.327238    5.902454
  42 H     1.0000    0     1.008   -4.589761   -1.592865    3.402323
  43 H     1.0000    0     1.008   -7.327557   -2.483144    5.219053
  44 H     1.0000    0     1.008   -8.359170   -4.398939   -1.811665
  45 H     1.0000    0     1.008   -3.929345   -0.936150   -0.639028
  46 H     1.0000    0     1.008   -0.098710   -2.862323   -1.144371
  47 H     1.0000    0     1.008    0.421456   -7.987553   -3.989692
  48 H     1.0000    0     1.008    4.712642   -7.155384   -4.273476
  49 H     1.0000    0     1.008    7.817755   -5.014677   -1.384062
  50 H     1.0000    0     1.008    7.661819    0.933708   -1.553313
  51 H     1.0000    0     1.008   13.216257   -0.989710    4.348683
  52 H     1.0000    0     1.008   15.910593    2.528157    5.801917
  53 H     1.0000    0     1.008   15.140085   10.024952    1.674088
  54 H     1.0000    0     1.008   17.789099   10.641188    3.667964
  55 H     1.0000    0     1.008   18.289845    9.015683    0.704673
  56 H     1.0000    0     1.008   14.079155    6.713018   -0.950084
  57 H     1.0000    0     1.008   11.347567    3.267573   -2.342779
  58 H     1.0000    0     1.008    4.983727    0.380551   -5.153493
  59 H     1.0000    0     1.008    2.907327    0.390470   -2.350910
  60 H     1.0000    0     1.008    1.953805   -1.112697   -5.263424
  61 H     1.0000    0     1.008   -6.053944   -5.561562   -5.533078
  62 H     1.0000    0     1.008   -5.461581   -7.949553   -3.106105
  63 H     1.0000    0     1.008   -3.306116   -7.359837   -5.669148

--------------------------------
INTERNAL COORDINATES (ANGSTROEM)
--------------------------------
 C      0   0   0     0.000000000000     0.00000000     0.00000000
 C      1   0   0     1.509840205369     0.00000000     0.00000000
 C      2   1   0     1.370580102802   122.53582468     0.00000000
 C      3   2   1     1.560229566609   120.17477683   175.69698411
 C      4   3   2     1.552447739947   112.03598285    19.94637418
 C      5   4   3     1.525317260168   111.95583251   313.52185408
 C      6   5   4     1.519127977248   109.14981511    61.75467775
 C      4   3   2     1.544605811400   110.37270258   259.61791114
 C      4   3   2     1.552932924471   111.00859407   137.14077185
 C      3   2   1     1.508721914133   117.47556456   353.68656093
 C     10   3   2     1.345179454626   125.95385320   152.32985255
 C     11  10   3     1.496460340053   123.92716568   176.80756906
 C     12  11  10     1.355160978317   117.36708101   196.28003543
 C     13  12  11     1.476984684599   125.19922063   178.50524320
 C     14  13  12     1.338424176691   123.75591703   162.03950462
 C     15  14  13     1.485444523801   125.65967953   354.24656444
 C     16  15  14     1.347944408731   118.32327453   138.11073499
 C     17  16  15     1.475100786279   124.33198071   179.93317799
 N     18  17  16     1.298607442921   119.27252303   177.65267236
 C     19  18  17     1.431891715042   124.09446789   179.67342019
 C     20  19  18     1.403090636110   118.84656217   147.95923146
 C     21  20  19     1.402604441365   120.03648092   179.95237597
 C     22  21  20     1.400050763278   120.91422947   359.81068675
 O     23  22  21     1.407691431852   118.24576437   176.92398109
 C     24  23  22     1.423213347722   124.11684775   180.17754899
 C     23  22  21     1.408812684600   118.84902913   357.69449445
 C     26  23  22     1.399418650175   120.58062305     2.89876105
 C     16  15  14     1.512734908718   120.15126869   313.62144613
 C     12  11  10     1.516081250985   119.66049225    16.48578794
 H      1   2   3     1.118183298554   112.26541366   180.35213817
 H      1   2   3     1.115999848188   110.49585838   300.59355994
 H      1   2   3     1.108805684259   110.88243031    62.48278145
 H      5   4   3     1.117125566207   110.94776042   192.54179153
 H      5   4   3     1.110717067871   110.58949700    73.27417358
 H      6   5   4     1.105922773939   111.56895545   299.02483622
 H      6   5   4     1.109224761130   109.11120151   180.57820256
 H      7   6   5     1.112985808426   107.77785815   188.62446420
 H      7   6   5     1.112070465319   109.50379609    71.55999031
 H      8   4   3     1.101773528425   113.62660130   297.61223865
 H      8   4   3     1.110797946870   111.84363572    56.75308344
 H      8   4   3     1.116115712916   111.09798455   178.49185905
 H      9   4   3     1.105558708798   109.62683553   177.95429694
 H      9   4   3     1.105061838441   114.29957908    61.49026656
 H      9   4   3     1.105518110896   110.61168103   297.81368791
 H     10   3   2     1.083466081511   116.97744744   331.56469050
 H     11  10   3     1.071726345725   120.45393577   358.98038500
 H     13  12  11     1.086459712349   117.38669172     1.05796493
 H     14  13  12     1.077768370730   119.00181877   336.50816326
 H     15  14  13     1.082925553499   116.86208148   171.63915333
 H     17  16  15     1.089614007209   119.03060944     2.33298258
 H     18  17  16     1.080437469309   120.21345044     1.11362641
 H     21  20  19     1.080694137224   120.02173158   358.58325978
 H     22  21  20     1.080876249217   119.11642786   178.16624552
 H     25  24  23     1.109736695231   110.14044329    48.06345192
 H     25  24  23     1.105226041848   109.71579487   166.02522654
 H     25  24  23     1.112582485095   110.04951388   286.23030606
 H     26  23  22     1.088001776993   120.85970065   184.38439275
 H     27  26  23     1.078382508584   118.90767474   180.48862495
 H     28  16  15     1.113104564688   111.08320106   236.24823647
 H     28  16  15     1.119474869010   108.55064973   113.27484652
 H     28  16  15     1.109166807465   110.16932629   354.85827375
 H     29  12  11     1.099355024967   109.58409019    45.44060703
 H     29  12  11     1.111134385307   109.84864580   282.43276912
 H     29  12  11     1.104206424275   112.79873935   161.08483801

---------------------------
INTERNAL COORDINATES (A.U.)
---------------------------
 C      0   0   0     0.000000000000     0.00000000     0.00000000
 C      1   0   0     2.853184494130     0.00000000     0.00000000
 C      2   1   0     2.590021038898   122.53582468     0.00000000
 C      3   2   1     2.948406586938   120.17477683   175.69698411
 C      4   3   2     2.933701065725   112.03598285    19.94637418
 C      5   4   3     2.882431889060   111.95583251   313.52185408
 C      6   5   4     2.870735839376   109.14981511    61.75467775
 C      4   3   2     2.918881968409   110.37270258   259.61791114
 C      4   3   2     2.934617931599   111.00859407   137.14077185
 C      3   2   1     2.851071229957   117.47556456   353.68656093
 C     10   3   2     2.542020770221   125.95385320   152.32985255
 C     11  10   3     2.827900212976   123.92716568   176.80756906
 C     12  11  10     2.560883116397   117.36708101   196.28003543
 C     13  12  11     2.791096557888   125.19922063   178.50524320
 C     14  13  12     2.529255144964   123.75591703   162.03950462
 C     15  14  13     2.807083337116   125.65967953   354.24656444
 C     16  15  14     2.547245776251   118.32327453   138.11073499
 C     17  16  15     2.787536505999   124.33198071   179.93317799
 N     18  17  16     2.454012422592   119.27252303   177.65267236
 C     19  18  17     2.705883194860   124.09446789   179.67342019
 C     20  19  18     2.651457043318   118.84656217   147.95923146
 C     21  20  19     2.650538268402   120.03648092   179.95237597
 C     22  21  20     2.645712516183   120.91422947   359.81068675
 O     23  22  21     2.660151287267   118.24576437   176.92398109
 C     24  23  22     2.689483457336   124.11684775   180.17754899
 C     23  22  21     2.662270147888   118.84902913   357.69449445
 C     26  23  22     2.644517995533   120.58062305     2.89876105
 C     16  15  14     2.858654690699   120.15126869   313.62144613
 C     12  11  10     2.864978361134   119.66049225    16.48578794
 H      1   2   3     2.113060201793   112.26541366   180.35213817
 H      1   2   3     2.108934078572   110.49585838   300.59355994
 H      1   2   3     2.095339078984   110.88243031    62.48278145
 H      5   4   3     2.111061377333   110.94776042   192.54179153
 H      5   4   3     2.098951070547   110.58949700    73.27417358
 H      6   5   4     2.089891168011   111.56895545   299.02483622
 H      6   5   4     2.096131019501   109.11120151   180.57820256
 H      7   6   5     2.103238368866   107.77785815   188.62446420
 H      7   6   5     2.101508621075   109.50379609    71.55999031
 H      8   4   3     2.082050230327   113.62660130   297.61223865
 H      8   4   3     2.099103909706   111.84363572    56.75308344
 H      8   4   3     2.109153031178   111.09798455   178.49185905
 H      9   4   3     2.089203184601   109.62683553   177.95429694
 H      9   4   3     2.088264235701   114.29957908    61.49026656
 H      9   4   3     2.089126465684   110.61168103   297.81368791
 H     10   3   2     2.047454169449   116.97744744   331.56469050
 H     11  10   3     2.025269283928   120.45393577   358.98038500
 H     13  12  11     2.053111311878   117.38669172     1.05796493
 H     14  13  12     2.036687056481   119.00181877   336.50816326
 H     15  14  13     2.046432719539   116.86208148   171.63915333
 H     17  16  15     2.059072065309   119.03060944     2.33298258
 H     18  17  16     2.041730921820   120.21345044     1.11362641
 H     21  20  19     2.042215953887   120.02173158   358.58325978
 H     22  21  20     2.042560095680   119.11642786   178.16624552
 H     25  24  23     2.097098434749   110.14044329    48.06345192
 H     25  24  23     2.088574535170   109.71579487   166.02522654
 H     25  24  23     2.102476198228   110.04951388   286.23030606
 H     26  23  22     2.056025391737   120.85970065   184.38439275
 H     27  26  23     2.037847608834   118.90767474   180.48862495
 H     28  16  15     2.103462785678   111.08320106   236.24823647
 H     28  16  15     2.115500916236   108.55064973   113.27484652
 H     28  16  15     2.096021502944   110.16932629   354.85827375
 H     29  12  11     2.077479921138   109.58409019    45.44060703
 H     29  12  11     2.099739686213   109.84864580   282.43276912
 H     29  12  11     2.086647737196   112.79873935   161.08483801

---------------------
BASIS SET INFORMATION
---------------------
There are 4 groups of distinct atoms

 Group   1 Type C   : 7s4p1d contracted to 3s2p1d pattern {511/31/1}
 Group   2 Type N   : 7s4p1d contracted to 3s2p1d pattern {511/31/1}
 Group   3 Type O   : 7s4p1d contracted to 3s2p1d pattern {511/31/1}
 Group   4 Type H   : 4s1p contracted to 2s1p pattern {31/1}

Atom   0C    basis set group =>   1
Atom   1C    basis set group =>   1
Atom   2C    basis set group =>   1
Atom   3C    basis set group =>   1
Atom   4C    basis set group =>   1
Atom   5C    basis set group =>   1
Atom   6C    basis set group =>   1
Atom   7C    basis set group =>   1
Atom   8C    basis set group =>   1
Atom   9C    basis set group =>   1
Atom  10C    basis set group =>   1
Atom  11C    basis set group =>   1
Atom  12C    basis set group =>   1
Atom  13C    basis set group =>   1
Atom  14C    basis set group =>   1
Atom  15C    basis set group =>   1
Atom  16C    basis set group =>   1
Atom  17C    basis set group =>   1
Atom  18N    basis set group =>   2
Atom  19C    basis set group =>   1
Atom  20C    basis set group =>   1
Atom  21C    basis set group =>   1
Atom  22C    basis set group =>   1
Atom  23O    basis set group =>   3
Atom  24C    basis set group =>   1
Atom  25C    basis set group =>   1
Atom  26C    basis set group =>   1
Atom  27C    basis set group =>   1
Atom  28C    basis set group =>   1
Atom  29H    basis set group =>   4
Atom  30H    basis set group =>   4
Atom  31H    basis set group =>   4
Atom  32H    basis set group =>   4
Atom  33H    basis set group =>   4
Atom  34H    basis set group =>   4
Atom  35H    basis set group =>   4
Atom  36H    basis set group =>   4
Atom  37H    basis set group =>   4
Atom  38H    basis set group =>   4
Atom  39H    basis set group =>   4
Atom  40H    basis set group =>   4
Atom  41H    basis set group =>   4
Atom  42H    basis set group =>   4
Atom  43H    basis set group =>   4
Atom  44H    basis set group =>   4
Atom  45H    basis set group =>   4
Atom  46H    basis set group =>   4
Atom  47H    basis set group =>   4
Atom  48H    basis set group =>   4
Atom  49H    basis set group =>   4
Atom  50H    basis set group =>   4
Atom  51H    basis set group =>   4
Atom  52H    basis set group =>   4
Atom  53H    basis set group =>   4
Atom  54H    basis set group =>   4
Atom  55H    basis set group =>   4
Atom  56H    basis set group =>   4
Atom  57H    basis set group =>   4
Atom  58H    basis set group =>   4
Atom  59H    basis set group =>   4
Atom  60H    basis set group =>   4
Atom  61H    basis set group =>   4
Atom  62H    basis set group =>   4
Atom  63H    basis set group =>   4
---------------------------------
AUXILIARY/J BASIS SET INFORMATION
---------------------------------
There are 4 groups of distinct atoms

 Group   1 Type C   : 12s5p4d2f1g contracted to 6s4p3d1f1g pattern {711111/2111/211/2/1}
 Group   2 Type N   : 12s5p4d2f1g contracted to 6s4p3d1f1g pattern {711111/2111/211/2/1}
 Group   3 Type O   : 12s5p4d2f1g contracted to 6s4p3d1f1g pattern {711111/2111/211/2/1}
 Group   4 Type H   : 5s2p1d contracted to 3s1p1d pattern {311/2/1}

Atom   0C    basis set group =>   1
Atom   1C    basis set group =>   1
Atom   2C    basis set group =>   1
Atom   3C    basis set group =>   1
Atom   4C    basis set group =>   1
Atom   5C    basis set group =>   1
Atom   6C    basis set group =>   1
Atom   7C    basis set group =>   1
Atom   8C    basis set group =>   1
Atom   9C    basis set group =>   1
Atom  10C    basis set group =>   1
Atom  11C    basis set group =>   1
Atom  12C    basis set group =>   1
Atom  13C    basis set group =>   1
Atom  14C    basis set group =>   1
Atom  15C    basis set group =>   1
Atom  16C    basis set group =>   1
Atom  17C    basis set group =>   1
Atom  18N    basis set group =>   2
Atom  19C    basis set group =>   1
Atom  20C    basis set group =>   1
Atom  21C    basis set group =>   1
Atom  22C    basis set group =>   1
Atom  23O    basis set group =>   3
Atom  24C    basis set group =>   1
Atom  25C    basis set group =>   1
Atom  26C    basis set group =>   1
Atom  27C    basis set group =>   1
Atom  28C    basis set group =>   1
Atom  29H    basis set group =>   4
Atom  30H    basis set group =>   4
Atom  31H    basis set group =>   4
Atom  32H    basis set group =>   4
Atom  33H    basis set group =>   4
Atom  34H    basis set group =>   4
Atom  35H    basis set group =>   4
Atom  36H    basis set group =>   4
Atom  37H    basis set group =>   4
Atom  38H    basis set group =>   4
Atom  39H    basis set group =>   4
Atom  40H    basis set group =>   4
Atom  41H    basis set group =>   4
Atom  42H    basis set group =>   4
Atom  43H    basis set group =>   4
Atom  44H    basis set group =>   4
Atom  45H    basis set group =>   4
Atom  46H    basis set group =>   4
Atom  47H    basis set group =>   4
Atom  48H    basis set group =>   4
Atom  49H    basis set group =>   4
Atom  50H    basis set group =>   4
Atom  51H    basis set group =>   4
Atom  52H    basis set group =>   4
Atom  53H    basis set group =>   4
Atom  54H    basis set group =>   4
Atom  55H    basis set group =>   4
Atom  56H    basis set group =>   4
Atom  57H    basis set group =>   4
Atom  58H    basis set group =>   4
Atom  59H    basis set group =>   4
Atom  60H    basis set group =>   4
Atom  61H    basis set group =>   4
Atom  62H    basis set group =>   4
Atom  63H    basis set group =>   4
------------------------------------------------------------------------------
                             ORCA STARTUP CALCULATIONS
                           -- RI-GTO INTEGRALS CHOSEN --
------------------------------------------------------------------------------
------------------------------------------------------------------------------
                   ___                                                        
                  /   \      - P O W E R E D   B Y -                         
                 /     \                                                     
                 |  |  |   _    _      __       _____    __    __             
                 |  |  |  | |  | |    /  \     |  _  \  |  |  /  |          
                  \  \/   | |  | |   /    \    | | | |  |  | /  /          
                 / \  \   | |__| |  /  /\  \   | |_| |  |  |/  /          
                |  |  |   |  __  | /  /__\  \  |    /   |      \           
                |  |  |   | |  | | |   __   |  |    \   |  |\   \          
                \     /   | |  | | |  |  |  |  | |\  \  |  | \   \       
                 \___/    |_|  |_| |__|  |__|  |_| \__\ |__|  \__/        
                                                                              
                      - O R C A' S   B I G   F R I E N D -                    
                                      &                                       
                       - I N T E G R A L  F E E D E R -                       
                                                                              
 v1 FN, 2020, v2 2021, v3 2022-2024                                           
------------------------------------------------------------------------------


----------------------
SHARK INTEGRAL PACKAGE
----------------------

Number of atoms                             ...     64
Number of basis functions                   ...    581
Number of shells                            ...    279
Maximum angular momentum                    ...      2
Integral batch strategy                     ... SHARK/LIBINT Hybrid
RI-J (if used) integral strategy            ... SPLIT-RIJ (Revised 2003 algorithm where possible)
Printlevel                                  ...      1
Contraction scheme used                     ... SEGMENTED contraction
Prescreening option                         ... SCHWARTZ
   Thresh                                   ... 2.500e-11
   Tcut                                     ... 2.500e-12
   Tpresel                                  ... 2.500e-12 
Coulomb Range Separation                    ... NOT USED
Exchange Range Separation                   ... NOT USED
Multipole approximations                    ... NOT USED
Finite Nucleus Model                        ... NOT USED
CABS basis                                  ... NOT available
Auxiliary Coulomb fitting basis             ... AVAILABLE
   # of basis functions in Aux-J            ...   1806
   # of shells in Aux-J                     ...    610
   Maximum angular momentum in Aux-J        ...      4
Auxiliary J/K fitting basis                 ... NOT available
Auxiliary Correlation fitting basis         ... NOT available
Auxiliary 'external' fitting basis          ... NOT available

Checking pre-screening integrals            ... done (  0.0 sec) Dimension = 279
   => SHARK Basis and OBASIS are compatible. Storing Pre-screening
Shell pair information
Shell pair cut-off parameter TPreSel        ...   2.5e-12
Total number of shell pairs                 ...     39060
Shell pairs after pre-screening             ...     19455
Total number of primitive shell pairs       ...    137508
Primitive shell pairs kept                  ...     43798
          la=0 lb=0:   6569 shell pairs
          la=1 lb=0:   7384 shell pairs
          la=1 lb=1:   2130 shell pairs
          la=2 lb=0:   2067 shell pairs
          la=2 lb=1:   1140 shell pairs
          la=2 lb=2:    165 shell pairs

Checking whether 4 symmetric matrices of dimension 581 fit in memory
:Max Core in MB      =   4096.00
 MB in use           =     22.10
 MB left             =   4073.90
 MB needed           =      5.16
 Data fit in memory  = YES
Calculating RI/J V-Matrix + Cholesky decomp.... done (  0.2 sec)
Calculating Nuclear repulsion               ... done (  0.0 sec) ENN=   2397.009776389873 Eh

Diagonalization of the overlap matrix:
Smallest eigenvalue                        ... 2.556e-04
Time for diagonalization                   ...    0.051 sec
Threshold for overlap eigenvalues          ... 1.000e-07
Number of eigenvalues below threshold      ... 0
Time for construction of square roots      ...    0.023 sec
Total time needed                          ...    0.075 sec

-------------------
DFT GRID GENERATION
-------------------

General Integration Accuracy     IntAcc      ... 4.388
Radial Grid Type                 RadialGrid  ... OptM3 with GC (2021)
Angular Grid (max. ang.)         AngularGrid ... 4 (Lebedev-302)
Angular grid pruning method      GridPruning ... 4 (adaptive)
Weight generation scheme         WeightScheme... mBecke (2022)
Basis function cutoff            BFCut       ... 1.0000e-11
Integration weight cutoff        WCut        ... 1.0000e-14
Partially contracted basis set               ... off
Rotationally invariant grid construction     ... off
Angular grids for H and He will be reduced by one unit

Total number of grid points                  ...   284453
Total number of batches                      ...     4476
Average number of points per batch           ...       63
Average number of grid points per atom       ...     4445
Grids setup in   3.2 sec
Initializing property integral containers    ... done (  0.0 sec)

SHARK setup successfully completed in   3.7 seconds

Maximum memory used throughout the entire STARTUP-calculation: 118.4 MB
-------------------------------------------------------------------------------
                                 ORCA GUESS
                   Start orbitals & Density for SCF / CASSCF
-------------------------------------------------------------------------------

------------
SCF SETTINGS
------------
Hamiltonian:
 Density Functional     Method          .... DFT(GTOs)
 Exchange Functional    Exchange        .... B88
   X-Alpha parameter    XAlpha          ....  0.666667
   Becke's b parameter  XBeta           ....  0.004200
 Correlation Functional Correlation     .... P86
 LDA part of GGA corr.  LDAOpt          .... PW91-LDA
 Gradients option       PostSCFGGA      .... off
   NL short-range parameter             ....  4.400000
 RI-approximation to the Coulomb term is turned on
   Number of AuxJ basis functions       .... 1806


General Settings:
 Integral files         IntName         .... molecule
 Hartree-Fock type      HFTyp           .... RHF
 Total Charge           Charge          ....    0
 Multiplicity           Mult            ....    1
 Number of Electrons    NEL             ....  212
 Basis Dimension        Dim             ....  581
 Nuclear Repulsion      ENuc            ....   2397.0097763899 Eh

Convergence Acceleration:
 AO-DIIS                CNVDIIS         .... on
   Start iteration      DIISMaxIt       ....    12
   Startup error        DIISStart       ....  0.200000
   # of expansion vecs  DIISMaxEq       ....     5
   Bias factor          DIISBfac        ....   1.050
   Max. coefficient     DIISMaxC        ....  10.000
 MO-DIIS                CNVKDIIS        .... off
 Trust-Rad. Augm. Hess. CNVTRAH         .... auto
   Auto Start mean grad. ratio tolernc. ....  1.125000
   Auto Start start iteration           ....    50
   Auto Start num. interpolation iter.  ....    10
   Max. Number of Micro iterations      ....    24
   Max. Number of Macro iterations      .... Maxiter - #DIIS iter
   Number of Davidson start vectors     ....     2
   Converg. threshold    (grad. norm)   ....   1.000e-05
   Grad. Scal. Fac. for Micro threshold ....   0.100
   Minimum threshold for Micro iter.    ....   1.000e-02
   NR start threshold (gradient norm)   ....   1.000e-04
   Initial trust radius                 ....   0.400
   Minimum AH scaling param. (alpha)    ....   1.000
   Maximum AH scaling param. (alpha)    .... 1000.000
   Quad. conv. algorithm                .... NR
   White noise on init. David. guess    .... on
   Maximum white noise                  ....   0.010
   Pseudo random numbers                .... off
   Inactive MOs                         .... canonical
   Orbital update algorithm             .... Taylor
   Preconditioner                       .... Diag
   Full preconditioner red. dimension   ....   250
 SOSCF                 CNVSOSCF           .... on
   Start iteration     SOSCFMaxIt         ....   150
   Startup grad/error  SOSCFStart         ....  0.003300
   Hessian update      SOSCFHessUp        .... L-BFGS
   Autom. constraints  SOSCFAutoConstrain .... off
 Level Shifting         CNVShift        .... on
   Level shift para.    LevelShift      ....    0.2500
   Turn off err/grad.   ShiftErr        ....    0.0010
 Zerner damping         CNVZerner       .... off
 Static damping         CNVDamp         .... on
   Fraction old density DampFac         ....    0.7000
   Max. Damping (<1)    DampMax         ....    0.9800
   Min. Damping (>=0)   DampMin         ....    0.0000
   Turn off err/grad.   DampErr         ....    0.1000

SCF Procedure:
 Maximum # iterations   MaxIter         ....   125
 SCF integral mode      SCFMode         .... Direct
   Integral package                     .... SHARK and LIBINT hybrid scheme
 Reset frequency        DirectResetFreq ....    20
 Integral Threshold     Thresh          ....  2.500e-11 Eh
 Primitive CutOff       TCut            ....  2.500e-12 Eh

Convergence Tolerance:
 Convergence Check Mode ConvCheckMode   .... Total+1el-Energy
 Convergence forced     ConvForced      .... 1
 Energy Change          TolE            ....  1.000e-08 Eh
 1-El. energy change                    ....  1.000e-05 Eh
 Orbital Gradient       TolG            ....  1.000e-05
 Orbital Rotation angle TolX            ....  1.000e-05
 DIIS Error             TolErr          ....  5.000e-07

------------------------------
INITIAL GUESS: MODEL POTENTIAL
------------------------------
Loading Hartree-Fock densities                     ... done
Calculating cut-offs                               ... done
Initializing the effective Hamiltonian             ... done
Setting up the integral package (SHARK)            ... done
Starting the Coulomb interaction                   ... done (   1.2 sec)
Making the grid                                    ... done (   0.9 sec)
Mapping shells                                     ... done
Starting the XC term evaluation                    ... done (   0.9 sec)
  promolecular density results
     # of electrons  =    211.983125049
     EX              =   -163.846455252
     EC              =     -7.640330326
     EX+EC           =   -171.486785577
Transforming the Hamiltonian                       ... done (   0.0 sec)
Diagonalizing the Hamiltonian                      ... done (   0.0 sec)
Back transforming the eigenvectors                 ... done (   0.0 sec)
Now organizing SCF variables                       ... done
                      ------------------
                      INITIAL GUESS DONE (   3.0 sec)
                      ------------------
             **** ENERGY FILE WAS UPDATED (molecule.en.tmp) ****
Finished Guess after   3.2 sec
Maximum memory used throughout the entire GUESS-calculation: 39.8 MB

-------------------------------------------------------------------------------------------
                                      ORCA LEAN-SCF
                              memory conserving SCF solver
-------------------------------------------------------------------------------------------

----------------------------------------D-I-I-S--------------------------------------------
Iteration    Energy (Eh)           Delta-E    RMSDP     MaxDP     DIISErr   Damp  Time(sec)
-------------------------------------------------------------------------------------------
               ***  Starting incremental Fock matrix formation  ***
    1    -1178.3782115858684847     0.00e+00  1.66e-03  7.49e-02  1.47e-01  0.700   5.1
Warning: op=0 Small HOMO/LUMO gap (   0.071) - skipping pre-diagonalization
         Will do a full diagonalization
    2    -1178.6581756502355347    -2.80e-01  1.23e-03  4.10e-02  6.95e-02  0.700   5.2
                               ***Turning on AO-DIIS***
    3    -1178.7635695568883420    -1.05e-01  4.87e-04  1.39e-02  2.32e-02  0.700   7.3
    4    -1178.8240420117026588    -6.05e-02  7.47e-04  2.19e-02  1.13e-02  0.000   6.5
    5    -1178.9577423508717402    -1.34e-01  2.04e-04  7.68e-03  6.45e-03  0.000   6.4
                              *** Initializing SOSCF ***
---------------------------------------S-O-S-C-F--------------------------------------
Iteration    Energy (Eh)           Delta-E    RMSDP     MaxDP     MaxGrad    Time(sec)
--------------------------------------------------------------------------------------
    6    -1178.9589111849136316    -1.17e-03  7.79e-05  2.80e-03  2.51e-03     6.1
               *** Restarting incremental Fock matrix formation ***
    7    -1178.9590174451946041    -1.06e-04  6.46e-05  4.20e-03  4.24e-04     7.3
    8    -1178.9589924513084043     2.50e-05  3.00e-05  2.90e-03  9.43e-04     5.7
    9    -1178.9590400477027288    -4.76e-05  1.39e-05  4.92e-04  8.13e-05     5.6
   10    -1178.9590389931095160     1.05e-06  6.89e-06  3.45e-04  1.03e-04     5.6
   11    -1178.9590410413557038    -2.05e-06  5.18e-06  2.81e-04  3.65e-05     3.9
   12    -1178.9590407883019907     2.53e-07  3.15e-06  2.06e-04  6.50e-05     3.6
   13    -1178.9590411708927604    -3.83e-07  2.26e-06  1.05e-04  2.19e-05     3.5
   14    -1178.9590410952218917     7.57e-08  1.52e-06  7.34e-05  4.60e-05     3.5
   15    -1178.9590412128673051    -1.18e-07  7.02e-07  3.80e-05  3.95e-06     3.5
   16    -1178.9590411873127778     2.56e-08  4.58e-07  2.42e-05  8.23e-06     3.3
   17    -1178.9590412059310438    -1.86e-08  1.91e-07  1.01e-05  2.07e-06     3.3
                  *** Gradient check signals convergence ***

               *****************************************************
               *                     SUCCESS                       *
               *           SCF CONVERGED AFTER  17 CYCLES          *
               *****************************************************

             **** ENERGY FILE WAS UPDATED (molecule.en.tmp) ****

----------------
TOTAL SCF ENERGY
----------------

Total Energy       :      -1178.95904121917920 Eh          -32081.10648 eV

Components:
Nuclear Repulsion  :       2397.00977638987342 Eh           65225.95204 eV
Electronic Energy  :      -3575.96881760905262 Eh          -97307.05852 eV
One Electron Energy:      -6357.32317396002145 Eh         -172991.55828 eV
Two Electron Energy:       2781.35435635096883 Eh           75684.49976 eV

Virial components:
Potential Energy   :      -2343.38442578009472 Eh          -63766.73206 eV
Kinetic Energy     :       1164.42538456091575 Eh           31685.62558 eV
Virial Ratio       :          2.01248139799335

DFT components:
N(Alpha)           :      105.999820855824 electrons
N(Beta)            :      105.999820855824 electrons
N(Total)           :      211.999641711648 electrons
E(X)               :     -167.001145784839 Eh       
E(C)               :       -7.635556720347 Eh       
E(XC)              :     -174.636702505186 Eh       

---------------
SCF CONVERGENCE
---------------

  Last Energy change         ...    1.8618e-08  Tolerance :   1.0000e-08
  Last MAX-Density change    ...    1.0097e-05  Tolerance :   1.0000e-07
  Last RMS-Density change    ...    1.9088e-07  Tolerance :   5.0000e-09
  Last DIIS Error            ...    2.5121e-03  Tolerance :   5.0000e-07
  Last Orbital Gradient      ...    2.0683e-06  Tolerance :   1.0000e-05
  Last Orbital Rotation      ...    9.3612e-06  Tolerance :   1.0000e-05


----------------
ORBITAL ENERGIES
----------------

  NO   OCC          E(Eh)            E(eV) 
   0   2.0000     -18.804487      -511.6961 
   1   2.0000     -13.999367      -380.9421 
   2   2.0000      -9.973852      -271.4023 
   3   2.0000      -9.972858      -271.3753 
   4   2.0000      -9.946811      -270.6665 
   5   2.0000      -9.937960      -270.4256 
   6   2.0000      -9.930814      -270.2312 
   7   2.0000      -9.928786      -270.1760 
   8   2.0000      -9.927392      -270.1381 
   9   2.0000      -9.918389      -269.8931 
  10   2.0000      -9.918177      -269.8873 
  11   2.0000      -9.917062      -269.8570 
  12   2.0000      -9.916255      -269.8350 
  13   2.0000      -9.915847      -269.8239 
  14   2.0000      -9.915519      -269.8150 
  15   2.0000      -9.915493      -269.8143 
  16   2.0000      -9.914363      -269.7835 
  17   2.0000      -9.914226      -269.7798 
  18   2.0000      -9.914168      -269.7782 
  19   2.0000      -9.914006      -269.7738 
  20   2.0000      -9.912731      -269.7391 
  21   2.0000      -9.912697      -269.7382 
  22   2.0000      -9.912284      -269.7270 
  23   2.0000      -9.911611      -269.7087 
  24   2.0000      -9.908224      -269.6165 
  25   2.0000      -9.907916      -269.6081 
  26   2.0000      -9.907209      -269.5889 
  27   2.0000      -9.905986      -269.5556 
  28   2.0000      -9.899146      -269.3695 
  29   2.0000      -0.950254       -25.8577 
  30   2.0000      -0.826891       -22.5008 
  31   2.0000      -0.769173       -20.9303 
  32   2.0000      -0.764040       -20.7906 
  33   2.0000      -0.753151       -20.4943 
  34   2.0000      -0.736537       -20.0422 
  35   2.0000      -0.709145       -19.2968 
  36   2.0000      -0.702383       -19.1128 
  37   2.0000      -0.686109       -18.6700 
  38   2.0000      -0.675280       -18.3753 
  39   2.0000      -0.670601       -18.2480 
  40   2.0000      -0.654072       -17.7982 
  41   2.0000      -0.633477       -17.2378 
  42   2.0000      -0.623005       -16.9528 
  43   2.0000      -0.612134       -16.6570 
  44   2.0000      -0.609531       -16.5862 
  45   2.0000      -0.606411       -16.5013 
  46   2.0000      -0.602156       -16.3855 
  47   2.0000      -0.569923       -15.5084 
  48   2.0000      -0.551689       -15.0122 
  49   2.0000      -0.542356       -14.7583 
  50   2.0000      -0.525958       -14.3120 
  51   2.0000      -0.510630       -13.8949 
  52   2.0000      -0.501306       -13.6412 
  53   2.0000      -0.488882       -13.3032 
  54   2.0000      -0.480048       -13.0628 
  55   2.0000      -0.476524       -12.9669 
  56   2.0000      -0.466718       -12.7000 
  57   2.0000      -0.455587       -12.3972 
  58   2.0000      -0.442134       -12.0311 
  59   2.0000      -0.434099       -11.8124 
  60   2.0000      -0.430475       -11.7138 
  61   2.0000      -0.418507       -11.3881 
  62   2.0000      -0.414589       -11.2815 
  63   2.0000      -0.411299       -11.1920 
  64   2.0000      -0.400781       -10.9058 
  65   2.0000      -0.397372       -10.8131 
  66   2.0000      -0.395821       -10.7708 
  67   2.0000      -0.390944       -10.6381 
  68   2.0000      -0.384405       -10.4602 
  69   2.0000      -0.382779       -10.4159 
  70   2.0000      -0.381930       -10.3929 
  71   2.0000      -0.379575       -10.3288 
  72   2.0000      -0.378443       -10.2980 
  73   2.0000      -0.372323       -10.1314 
  74   2.0000      -0.369208       -10.0467 
  75   2.0000      -0.365821        -9.9545 
  76   2.0000      -0.359205        -9.7745 
  77   2.0000      -0.354591        -9.6489 
  78   2.0000      -0.348113        -9.4726 
  79   2.0000      -0.347204        -9.4479 
  80   2.0000      -0.343800        -9.3553 
  81   2.0000      -0.339663        -9.2427 
  82   2.0000      -0.335084        -9.1181 
  83   2.0000      -0.329092        -8.9550 
  84   2.0000      -0.325028        -8.8445 
  85   2.0000      -0.322632        -8.7793 
  86   2.0000      -0.321088        -8.7372 
  87   2.0000      -0.314574        -8.5600 
  88   2.0000      -0.310562        -8.4508 
  89   2.0000      -0.308938        -8.4066 
  90   2.0000      -0.306938        -8.3522 
  91   2.0000      -0.299576        -8.1519 
  92   2.0000      -0.296945        -8.0803 
  93   2.0000      -0.285448        -7.7674 
  94   2.0000      -0.282099        -7.6763 
  95   2.0000      -0.275086        -7.4855 
  96   2.0000      -0.274034        -7.4568 
  97   2.0000      -0.268969        -7.3190 
  98   2.0000      -0.259720        -7.0673 
  99   2.0000      -0.256419        -6.9775 
 100   2.0000      -0.232513        -6.3270 
 101   2.0000      -0.228831        -6.2268 
 102   2.0000      -0.214308        -5.8316 
 103   2.0000      -0.202869        -5.5204 
 104   2.0000      -0.183584        -4.9956 
 105   2.0000      -0.173200        -4.7130 
 106   0.0000      -0.097574        -2.6551 
 107   0.0000      -0.068194        -1.8557 
 108   0.0000      -0.041062        -1.1174 
 109   0.0000      -0.028592        -0.7780 
 110   0.0000      -0.007679        -0.2090 
 111   0.0000       0.017674         0.4809 
 112   0.0000       0.030324         0.8251 
 113   0.0000       0.032159         0.8751 
 114   0.0000       0.034294         0.9332 
 115   0.0000       0.037288         1.0147 
 116   0.0000       0.042548         1.1578 
*Only the first 10 virtual orbitals were printed.

                    ********************************
                    * MULLIKEN POPULATION ANALYSIS *
                    ********************************

-----------------------
MULLIKEN ATOMIC CHARGES
-----------------------
   0 C :    0.022644
   1 C :   -0.254788
   2 C :    0.094449
   3 C :   -0.270923
   4 C :    0.021246
   5 C :    0.010404
   6 C :    0.049690
   7 C :    0.044417
   8 C :    0.053386
   9 C :   -0.040058
  10 C :    0.006010
  11 C :   -0.093335
  12 C :   -0.038727
  13 C :   -0.005417
  14 C :   -0.020053
  15 C :   -0.107761
  16 C :    0.015986
  17 C :   -0.002898
  18 N :   -0.112210
  19 C :    0.084158
  20 C :    0.010870
  21 C :   -0.045464
  22 C :    0.248659
  23 O :   -0.315805
  24 C :    0.114913
  25 C :   -0.099345
  26 C :   -0.016661
  27 C :    0.017530
  28 C :    0.037048
  29 H :    0.019101
  30 H :    0.051382
  31 H :    0.047354
  32 H :    0.010084
  33 H :    0.006390
  34 H :    0.015930
  35 H :    0.007728
  36 H :    0.015680
  37 H :    0.030510
  38 H :    0.014810
  39 H :    0.022557
  40 H :    0.020192
  41 H :    0.009819
  42 H :    0.015380
  43 H :    0.022013
  44 H :   -0.019787
  45 H :   -0.022897
  46 H :   -0.001879
  47 H :   -0.001596
  48 H :    0.006535
  49 H :   -0.003044
  50 H :   -0.016782
  51 H :   -0.015681
  52 H :   -0.009503
  53 H :    0.036308
  54 H :    0.055102
  55 H :    0.039998
  56 H :   -0.020215
  57 H :   -0.024055
  58 H :    0.052800
  59 H :    0.054825
  60 H :    0.048359
  61 H :    0.039978
  62 H :    0.054378
  63 H :    0.030264
Sum of atomic charges:   -0.0000000

--------------------------------
MULLIKEN REDUCED ORBITAL CHARGES
--------------------------------
  0 C s       :     2.965289  s :     2.965289
      pz      :     1.003428  p :     2.987163
      px      :     0.980362
      py      :     1.003374
      dz2     :     0.006803  d :     0.024905
      dxz     :     0.004795
      dyz     :     0.003932
      dx2y2   :     0.007447
      dxy     :     0.001928

  1 C s       :     3.191966  s :     3.191966
      pz      :     0.986933  p :     3.023802
      px      :     1.023363
      py      :     1.013506
      dz2     :     0.007263  d :     0.039021
      dxz     :     0.011269
      dyz     :     0.004807
      dx2y2   :     0.007062
      dxy     :     0.008619

  2 C s       :     3.087972  s :     3.087972
      pz      :     0.940876  p :     2.781952
      px      :     0.928702
      py      :     0.912373
      dz2     :     0.005958  d :     0.035628
      dxz     :     0.008901
      dyz     :     0.005036
      dx2y2   :     0.007011
      dxy     :     0.008722

  3 C s       :     3.201994  s :     3.201994
      pz      :     0.993088  p :     3.022154
      px      :     1.017672
      py      :     1.011395
      dz2     :     0.007826  d :     0.046774
      dxz     :     0.010580
      dyz     :     0.010916
      dx2y2   :     0.007564
      dxy     :     0.009889

  4 C s       :     3.032573  s :     3.032573
      pz      :     0.993016  p :     2.913313
      px      :     0.959092
      py      :     0.961204
      dz2     :     0.003167  d :     0.032868
      dxz     :     0.008213
      dyz     :     0.009076
      dx2y2   :     0.005454
      dxy     :     0.006958

  5 C s       :     2.991213  s :     2.991213
      pz      :     0.983182  p :     2.963820
      px      :     0.970679
      py      :     1.009959
      dz2     :     0.003443  d :     0.034563
      dxz     :     0.009163
      dyz     :     0.009029
      dx2y2   :     0.006287
      dxy     :     0.006640

  6 C s       :     2.956722  s :     2.956722
      pz      :     0.966080  p :     2.959532
      px      :     1.019635
      py      :     0.973817
      dz2     :     0.003547  d :     0.034057
      dxz     :     0.008927
      dyz     :     0.008658
      dx2y2   :     0.004650
      dxy     :     0.008275

  7 C s       :     2.991239  s :     2.991239
      pz      :     0.983937  p :     2.939181
      px      :     0.988469
      py      :     0.966775
      dz2     :     0.001539  d :     0.025162
      dxz     :     0.007200
      dyz     :     0.007038
      dx2y2   :     0.004049
      dxy     :     0.005337

  8 C s       :     2.989491  s :     2.989491
      pz      :     0.984500  p :     2.932063
      px      :     0.970988
      py      :     0.976574
      dz2     :     0.002538  d :     0.025060
      dxz     :     0.006084
      dyz     :     0.006780
      dx2y2   :     0.003439
      dxy     :     0.006218

  9 C s       :     3.188764  s :     3.188764
      pz      :     0.970175  p :     2.819576
      px      :     0.927078
      py      :     0.922324
      dz2     :     0.003059  d :     0.031718
      dxz     :     0.007917
      dyz     :     0.002845
      dx2y2   :     0.008302
      dxy     :     0.009595

 10 C s       :     3.196976  s :     3.196976
      pz      :     0.969352  p :     2.765037
      px      :     0.903905
      py      :     0.891780
      dz2     :     0.003024  d :     0.031976
      dxz     :     0.007856
      dyz     :     0.002812
      dx2y2   :     0.007565
      dxy     :     0.010719

 11 C s       :     3.117823  s :     3.117823
      pz      :     0.982456  p :     2.935220
      px      :     0.969253
      py      :     0.983511
      dz2     :     0.005161  d :     0.040292
      dxz     :     0.009783
      dyz     :     0.005056
      dx2y2   :     0.009168
      dxy     :     0.011125

 12 C s       :     3.199462  s :     3.199462
      pz      :     0.945168  p :     2.807731
      px      :     0.957717
      py      :     0.904847
      dz2     :     0.003041  d :     0.031535
      dxz     :     0.007860
      dyz     :     0.003627
      dx2y2   :     0.008063
      dxy     :     0.008944

 13 C s       :     3.142806  s :     3.142806
      pz      :     0.971564  p :     2.829397
      px      :     0.977498
      py      :     0.880334
      dz2     :     0.002795  d :     0.033214
      dxz     :     0.007855
      dyz     :     0.002559
      dx2y2   :     0.010321
      dxy     :     0.009683

 14 C s       :     3.144339  s :     3.144339
      pz      :     0.990566  p :     2.843264
      px      :     0.958567
      py      :     0.894131
      dz2     :     0.002304  d :     0.032450
      dxz     :     0.006047
      dyz     :     0.003130
      dx2y2   :     0.008671
      dxy     :     0.012298

 15 C s       :     3.115701  s :     3.115701
      pz      :     0.963886  p :     2.950914
      px      :     0.995739
      py      :     0.991288
      dz2     :     0.005476  d :     0.041146
      dxz     :     0.006275
      dyz     :     0.007522
      dx2y2   :     0.010931
      dxy     :     0.010942

 16 C s       :     3.221352  s :     3.221352
      pz      :     0.972802  p :     2.732758
      px      :     0.913378
      py      :     0.846578
      dz2     :     0.004406  d :     0.029905
      dxz     :     0.004833
      dyz     :     0.003838
      dx2y2   :     0.007727
      dxy     :     0.009099

 17 C s       :     3.168030  s :     3.168030
      pz      :     0.927383  p :     2.783173
      px      :     0.908906
      py      :     0.946884
      dz2     :     0.007065  d :     0.051695
      dxz     :     0.008709
      dyz     :     0.007163
      dx2y2   :     0.012100
      dxy     :     0.016657

 18 N s       :     3.527044  s :     3.527044
      pz      :     1.099903  p :     3.560576
      px      :     1.046273
      py      :     1.414400
      dz2     :     0.004404  d :     0.024590
      dxz     :     0.004452
      dyz     :     0.003489
      dx2y2   :     0.006063
      dxy     :     0.006182

 19 C s       :     2.978944  s :     2.978944
      pz      :     0.975972  p :     2.883108
      px      :     0.987703
      py      :     0.919433
      dz2     :     0.010596  d :     0.053790
      dxz     :     0.008523
      dyz     :     0.011782
      dx2y2   :     0.012336
      dxy     :     0.010553

 20 C s       :     3.263169  s :     3.263169
      pz      :     0.940993  p :     2.694754
      px      :     0.949388
      py      :     0.804374
      dz2     :     0.006792  d :     0.031206
      dxz     :     0.005474
      dyz     :     0.007803
      dx2y2   :     0.006561
      dxy     :     0.004575

 21 C s       :     3.255428  s :     3.255428
      pz      :     0.869716  p :     2.759630
      px      :     0.942425
      py      :     0.947489
      dz2     :     0.005513  d :     0.030406
      dxz     :     0.004927
      dyz     :     0.007356
      dx2y2   :     0.006877
      dxy     :     0.005733

 22 C s       :     2.943822  s :     2.943822
      pz      :     0.963288  p :     2.741932
      px      :     0.924413
      py      :     0.854231
      dz2     :     0.012329  d :     0.065586
      dxz     :     0.009245
      dyz     :     0.016612
      dx2y2   :     0.013237
      dxy     :     0.014163

 23 O s       :     3.745919  s :     3.745919
      pz      :     1.653270  p :     4.555599
      px      :     1.660419
      py      :     1.241910
      dz2     :     0.001805  d :     0.014287
      dxz     :     0.002175
      dyz     :     0.004714
      dx2y2   :     0.002702
      dxy     :     0.002890

 24 C s       :     3.047052  s :     3.047052
      pz      :     0.974347  p :     2.789176
      px      :     1.028595
      py      :     0.786234
      dz2     :     0.005855  d :     0.048859
      dxz     :     0.008574
      dyz     :     0.013513
      dx2y2   :     0.011046
      dxy     :     0.009870

 25 C s       :     3.250450  s :     3.250450
      pz      :     0.932023  p :     2.818285
      px      :     1.009709
      py      :     0.876553
      dz2     :     0.006809  d :     0.030610
      dxz     :     0.005798
      dyz     :     0.007869
      dx2y2   :     0.005956
      dxy     :     0.004178

 26 C s       :     3.250902  s :     3.250902
      pz      :     0.850581  p :     2.734163
      px      :     0.928679
      py      :     0.954903
      dz2     :     0.006056  d :     0.031596
      dxz     :     0.004922
      dyz     :     0.007304
      dx2y2   :     0.007046
      dxy     :     0.006269

 27 C s       :     2.968902  s :     2.968902
      pz      :     0.994220  p :     2.989073
      px      :     1.007548
      py      :     0.987305
      dz2     :     0.002328  d :     0.024495
      dxz     :     0.006315
      dyz     :     0.006415
      dx2y2   :     0.004052
      dxy     :     0.005385

 28 C s       :     2.938786  s :     2.938786
      pz      :     0.982595  p :     2.999507
      px      :     1.014722
      py      :     1.002190
      dz2     :     0.001869  d :     0.024659
      dxz     :     0.007141
      dyz     :     0.007259
      dx2y2   :     0.002681
      dxy     :     0.005708

 29 H s       :     0.959192  s :     0.959192
      pz      :     0.004415  p :     0.021707
      px      :     0.012113
      py      :     0.005180

 30 H s       :     0.926415  s :     0.926415
      pz      :     0.009875  p :     0.022203
      px      :     0.006751
      py      :     0.005577

 31 H s       :     0.929634  s :     0.929634
      pz      :     0.004890  p :     0.023013
      px      :     0.005742
      py      :     0.012381

 32 H s       :     0.969055  s :     0.969055
      pz      :     0.007436  p :     0.020861
      px      :     0.004809
      py      :     0.008615

 33 H s       :     0.972348  s :     0.972348
      pz      :     0.006943  p :     0.021263
      px      :     0.005062
      py      :     0.009258

 34 H s       :     0.962422  s :     0.962422
      pz      :     0.006868  p :     0.021648
      px      :     0.005314
      py      :     0.009467

 35 H s       :     0.971105  s :     0.971105
      pz      :     0.007711  p :     0.021167
      px      :     0.008224
      py      :     0.005232

 36 H s       :     0.963199  s :     0.963199
      pz      :     0.007228  p :     0.021121
      px      :     0.007914
      py      :     0.005978

 37 H s       :     0.947614  s :     0.947614
      pz      :     0.007116  p :     0.021876
      px      :     0.006737
      py      :     0.008022

 38 H s       :     0.961993  s :     0.961993
      pz      :     0.007894  p :     0.023197
      px      :     0.010181
      py      :     0.005123

 39 H s       :     0.955024  s :     0.955024
      pz      :     0.007810  p :     0.022419
      px      :     0.007875
      py      :     0.006733

 40 H s       :     0.957916  s :     0.957916
      pz      :     0.009167  p :     0.021892
      px      :     0.005798
      py      :     0.006927

 41 H s       :     0.967483  s :     0.967483
      pz      :     0.009173  p :     0.022698
      px      :     0.006264
      py      :     0.007260

 42 H s       :     0.961399  s :     0.961399
      pz      :     0.007093  p :     0.023221
      px      :     0.009846
      py      :     0.006282

 43 H s       :     0.955767  s :     0.955767
      pz      :     0.006154  p :     0.022219
      px      :     0.006491
      py      :     0.009574

 44 H s       :     0.996206  s :     0.996206
      pz      :     0.006491  p :     0.023581
      px      :     0.006522
      py      :     0.010569

 45 H s       :     0.998509  s :     0.998509
      pz      :     0.006677  p :     0.024388
      px      :     0.006642
      py      :     0.011069

 46 H s       :     0.978906  s :     0.978906
      pz      :     0.008236  p :     0.022973
      px      :     0.005388
      py      :     0.009349

 47 H s       :     0.978258  s :     0.978258
      pz      :     0.005778  p :     0.023338
      px      :     0.005374
      py      :     0.012186

 48 H s       :     0.970365  s :     0.970365
      pz      :     0.006037  p :     0.023100
      px      :     0.007770
      py      :     0.009293

 49 H s       :     0.980562  s :     0.980562
      pz      :     0.005344  p :     0.022482
      px      :     0.006035
      py      :     0.011104

 50 H s       :     0.995382  s :     0.995382
      pz      :     0.004349  p :     0.021400
      px      :     0.004600
      py      :     0.012451

 51 H s       :     0.993047  s :     0.993047
      pz      :     0.006967  p :     0.022633
      px      :     0.004600
      py      :     0.011066

 52 H s       :     0.986757  s :     0.986757
      pz      :     0.011687  p :     0.022747
      px      :     0.007095
      py      :     0.003965

 53 H s       :     0.942037  s :     0.942037
      pz      :     0.005745  p :     0.021656
      px      :     0.011261
      py      :     0.004650

 54 H s       :     0.923931  s :     0.923931
      pz      :     0.007639  p :     0.020967
      px      :     0.006668
      py      :     0.006660

 55 H s       :     0.938843  s :     0.938843
      pz      :     0.009700  p :     0.021159
      px      :     0.008388
      py      :     0.003071

 56 H s       :     0.997315  s :     0.997315
      pz      :     0.007479  p :     0.022900
      px      :     0.004969
      py      :     0.010452

 57 H s       :     1.000994  s :     1.000994
      pz      :     0.011783  p :     0.023061
      px      :     0.007293
      py      :     0.003986

 58 H s       :     0.924984  s :     0.924984
      pz      :     0.007365  p :     0.022216
      px      :     0.008223
      py      :     0.006628

 59 H s       :     0.922872  s :     0.922872
      pz      :     0.009445  p :     0.022303
      px      :     0.006008
      py      :     0.006850

 60 H s       :     0.929389  s :     0.929389
      pz      :     0.007603  p :     0.022252
      px      :     0.010089
      py      :     0.004561

 61 H s       :     0.936910  s :     0.936910
      pz      :     0.007740  p :     0.023112
      px      :     0.009166
      py      :     0.006206

 62 H s       :     0.923025  s :     0.923025
      pz      :     0.007294  p :     0.022598
      px      :     0.006467
      py      :     0.008837

 63 H s       :     0.946876  s :     0.946876
      pz      :     0.008166  p :     0.022860
      px      :     0.008480
      py      :     0.006214



                     *******************************
                     * LOEWDIN POPULATION ANALYSIS *
                     *******************************

----------------------
LOEWDIN ATOMIC CHARGES
----------------------
   0 C :   -0.069352
   1 C :   -0.033512
   2 C :   -0.036895
   3 C :   -0.045079
   4 C :   -0.029070
   5 C :   -0.045497
   6 C :   -0.041382
   7 C :   -0.054162
   8 C :   -0.053950
   9 C :   -0.025080
  10 C :   -0.030423
  11 C :   -0.019123
  12 C :   -0.045313
  13 C :   -0.035294
  14 C :   -0.029800
  15 C :   -0.022756
  16 C :   -0.046314
  17 C :    0.022431
  18 N :   -0.077274
  19 C :   -0.017068
  20 C :   -0.015506
  21 C :   -0.044218
  22 C :    0.054465
  23 O :   -0.116419
  24 C :    0.062068
  25 C :   -0.070752
  26 C :   -0.034763
  27 C :   -0.068580
  28 C :   -0.065728
  29 H :    0.031537
  30 H :    0.043197
  31 H :    0.038763
  32 H :    0.026577
  33 H :    0.024172
  34 H :    0.023596
  35 H :    0.026976
  36 H :    0.030319
  37 H :    0.038639
  38 H :    0.023090
  39 H :    0.026366
  40 H :    0.027082
  41 H :    0.024115
  42 H :    0.023613
  43 H :    0.027224
  44 H :    0.024133
  45 H :    0.018479
  46 H :    0.028338
  47 H :    0.028192
  48 H :    0.032837
  49 H :    0.033547
  50 H :   -0.003910
  51 H :    0.034349
  52 H :    0.034225
  53 H :    0.016643
  54 H :    0.033477
  55 H :    0.019655
  56 H :    0.028102
  57 H :    0.026923
  58 H :    0.041531
  59 H :    0.043457
  60 H :    0.039244
  61 H :    0.039079
  62 H :    0.045248
  63 H :    0.035532

-------------------------------
LOEWDIN REDUCED ORBITAL CHARGES
-------------------------------
  0 C s       :     2.850598  s :     2.850598
      pz      :     1.041225  p :     3.151100
      px      :     1.054043
      py      :     1.055832
      dz2     :     0.018253  d :     0.067653
      dxz     :     0.012881
      dyz     :     0.011166
      dx2y2   :     0.020546
      dxy     :     0.004808

  1 C s       :     2.878200  s :     2.878200
      pz      :     1.004499  p :     3.056352
      px      :     1.066845
      py      :     0.985008
      dz2     :     0.017077  d :     0.098960
      dxz     :     0.030150
      dyz     :     0.011655
      dx2y2   :     0.018808
      dxy     :     0.021270

  2 C s       :     2.877751  s :     2.877751
[...]
   102a -> 106a  :     0.038191 (c=  0.19542519)
   102a -> 107a  :     0.042645 (c= -0.20650671)
   103a -> 106a  :     0.010857 (c= -0.10419922)
   103a -> 107a  :     0.153028 (c= -0.39118855)
   104a -> 108a  :     0.011016 (c= -0.10495680)
   104a -> 109a  :     0.020765 (c=  0.14409972)
   105a -> 108a  :     0.055915 (c= -0.23646324)
   105a -> 109a  :     0.015725 (c= -0.12539772)
   105a -> 110a  :     0.019519 (c=  0.13971200)

STATE 18:  E=   0.125995 au      3.428 eV    27652.6 cm**-1 <S**2> =   2.000000 Mult 3
   100a -> 106a  :     0.093262 (c= -0.30538783)
   103a -> 107a  :     0.037296 (c=  0.19312207)
   104a -> 108a  :     0.075335 (c= -0.27447156)
   105a -> 108a  :     0.745797 (c= -0.86359512)

STATE 19:  E=   0.130402 au      3.548 eV    28619.9 cm**-1 <S**2> =   2.000000 Mult 3
   101a -> 106a  :     0.377750 (c= -0.61461396)
   102a -> 106a  :     0.015419 (c= -0.12417519)
   103a -> 107a  :     0.500107 (c=  0.70718258)
   105a -> 108a  :     0.046073 (c=  0.21464599)
   105a -> 109a  :     0.024868 (c=  0.15769727)

STATE 20:  E=   0.131394 au      3.575 eV    28837.6 cm**-1 <S**2> =   2.000000 Mult 3
   100a -> 106a  :     0.575359 (c= -0.75852442)
   101a -> 106a  :     0.209772 (c= -0.45800900)
   103a -> 107a  :     0.125871 (c= -0.35478305)
   105a -> 108a  :     0.051337 (c=  0.22657562)

Storing amplitudes in GBW file ... 
... GBW file created

-----------------------------
TD-DFT/TDA-EXCITATION SPECTRA
-----------------------------

Center of mass = (  1.4118, -0.0461,  0.1132)
Generating CIS transition densities           ... done

----------------------------------------------------------------------------------------------------
                     ABSORPTION SPECTRUM VIA TRANSITION ELECTRIC DIPOLE MOMENTS    
----------------------------------------------------------------------------------------------------
     Transition      Energy     Energy  Wavelength fosc(D2)      D2        DX        DY        DZ   
                      (eV)      (cm-1)    (nm)                 (au**2)    (au)      (au)      (au)  
----------------------------------------------------------------------------------------------------
  0-1A  ->  1-3A    1.846709   14894.7   671.4   0.000000000   0.00000   0.00000   0.00000   0.00000
  0-1A  ->  2-3A    2.172704   17524.0   570.6   0.000000000   0.00000   0.00000   0.00000   0.00000
  0-1A  ->  1-1A    2.437664   19661.1   508.6   0.554499837   9.28473  -2.87551  -0.92056  -0.41077
  0-1A  ->  2-1A    2.566084   20696.9   483.2   0.225994216   3.59475  -1.89407  -0.02258   0.08210
  0-1A  ->  3-3A    2.579651   20806.3   480.6   0.000000000   0.00000   0.00000   0.00000   0.00000
  0-1A  ->  4-3A    2.723080   21963.1   455.3   0.000000000   0.00000   0.00000   0.00000   0.00000
  0-1A  ->  5-3A    2.960442   23877.6   418.8   0.000000000   0.00000   0.00000   0.00000   0.00000
  0-1A  ->  6-3A    3.008883   24268.3   412.1   0.000000000   0.00000   0.00000   0.00000   0.00000
  0-1A  ->  3-1A    3.102430   25022.8   399.6   0.170914714   2.24864   1.49137   0.12914   0.08816
  0-1A  ->  4-1A    3.270023   26374.5   379.2   0.420319889   5.24652  -1.93196  -1.08006  -0.58952
  0-1A  ->  7-3A    3.356063   27068.5   369.4   0.000000000   0.00000   0.00000   0.00000   0.00000
  0-1A  ->  8-3A    3.428489   27652.6   361.6   0.000000000   0.00000   0.00000   0.00000   0.00000
  0-1A  ->  5-1A    3.453197   27851.9   359.0   0.127647132   1.50880   1.21847   0.14520   0.05515
  0-1A  ->  9-3A    3.548410   28619.9   349.4   0.000000000   0.00000   0.00000   0.00000   0.00000
  0-1A  -> 10-3A    3.575400   28837.6   346.8   0.000000000   0.00000   0.00000   0.00000   0.00000
  0-1A  ->  6-1A    3.592523   28975.7   345.1   0.111765518   1.26984  -1.06174   0.32680   0.18908
  0-1A  ->  7-1A    3.671273   29610.8   337.7   0.176571564   1.96312   1.29137  -0.47859  -0.25774
  0-1A  ->  8-1A    3.742426   30184.7   331.3   0.006096229   0.06649  -0.01994   0.09778   0.23776
  0-1A  ->  9-1A    3.828614   30879.9   323.8   0.325370212   3.46879  -1.84835   0.17135   0.15173
  0-1A  -> 10-1A    4.046626   32638.2   306.4   0.064687544   0.65248  -0.60497  -0.40190  -0.35352

----------------------------------------------------------------------------------------------------
                     ABSORPTION SPECTRUM VIA TRANSITION VELOCITY DIPOLE MOMENTS    
----------------------------------------------------------------------------------------------------
     Transition      Energy     Energy  Wavelength fosc(P2)      P2        PX        PY        PZ   
                      (eV)      (cm-1)    (nm)                 (au**2)    (au)      (au)      (au)  
----------------------------------------------------------------------------------------------------
  0-1A  ->  1-3A    1.846709   14894.7   671.4   0.000000000   0.00000   0.00000   0.00000   0.00000
  0-1A  ->  2-3A    2.172704   17524.0   570.6   0.000000000   0.00000   0.00000   0.00000   0.00000
  0-1A  ->  1-1A    2.437664   19661.1   508.6   0.091490717   0.01229   0.10786   0.02301  -0.01144
  0-1A  ->  2-1A    2.566084   20696.9   483.2   0.036827636   0.00521   0.06787   0.01811  -0.01659
  0-1A  ->  3-3A    2.579651   20806.3   480.6   0.000000000   0.00000   0.00000   0.00000   0.00000
  0-1A  ->  4-3A    2.723080   21963.1   455.3   0.000000000   0.00000   0.00000   0.00000   0.00000
  0-1A  ->  5-3A    2.960442   23877.6   418.8   0.000000000   0.00000   0.00000   0.00000   0.00000
  0-1A  ->  6-3A    3.008883   24268.3   412.1   0.000000000   0.00000   0.00000   0.00000   0.00000
  0-1A  ->  3-1A    3.102430   25022.8   399.6   0.046939022   0.00803  -0.07974  -0.02616   0.03139
  0-1A  ->  4-1A    3.270023   26374.5   379.2   0.094102255   0.01696   0.12189   0.04537   0.00689
  0-1A  ->  7-3A    3.356063   27068.5   369.4   0.000000000   0.00000   0.00000   0.00000   0.00000
  0-1A  ->  8-3A    3.428489   27652.6   361.6   0.000000000   0.00000   0.00000   0.00000   0.00000
  0-1A  ->  5-1A    3.453197   27851.9   359.0   0.041197940   0.00784  -0.08621  -0.01861   0.00803
  0-1A  ->  9-3A    3.548410   28619.9   349.4   0.000000000   0.00000   0.00000   0.00000   0.00000
  0-1A  -> 10-3A    3.575400   28837.6   346.8   0.000000000   0.00000   0.00000   0.00000   0.00000
  0-1A  ->  6-1A    3.592523   28975.7   345.1   0.015156348   0.00300   0.05128  -0.00261  -0.01911
  0-1A  ->  7-1A    3.671273   29610.8   337.7   0.019926029   0.00403  -0.05532   0.00284   0.03104
  0-1A  ->  8-1A    3.742426   30184.7   331.3   0.002618786   0.00054   0.00026  -0.01822   0.01444
  0-1A  ->  9-1A    3.828614   30879.9   323.8   0.054669140   0.01154   0.10161   0.00525  -0.03444
  0-1A  -> 10-1A    4.046626   32638.2   306.4   0.024136474   0.00538   0.05220   0.05118  -0.00636

------------------------------------------------------------------------------------------
                     CD SPECTRUM VIA TRANSITION ELECTRIC DIPOLE MOMENTS    
------------------------------------------------------------------------------------------
     Transition      Energy     Energy  Wavelength    R        MX        MY        MZ   
                      (eV)      (cm-1)    (nm)   (1e40*cgs)   (au)      (au)      (au)  
------------------------------------------------------------------------------------------
  0-1A  ->  1-3A    1.846709   14894.7   671.4   -0.00000   0.00000   0.00000   0.00000
  0-1A  ->  2-3A    2.172704   17524.0   570.6   -0.00000   0.00000   0.00000   0.00000
  0-1A  ->  1-1A    2.437664   19661.1   508.6  126.56965   0.08642  -0.30260   0.72677
  0-1A  ->  2-1A    2.566084   20696.9   483.2   11.51136   0.03720  -0.28746   0.48183
  0-1A  ->  3-3A    2.579651   20806.3   480.6   -0.00000   0.00000   0.00000   0.00000
  0-1A  ->  4-3A    2.723080   21963.1   455.3   -0.00000   0.00000   0.00000   0.00000
  0-1A  ->  5-3A    2.960442   23877.6   418.8   -0.00000   0.00000   0.00000   0.00000
  0-1A  ->  6-3A    3.008883   24268.3   412.1   -0.00000   0.00000   0.00000   0.00000
  0-1A  ->  3-1A    3.102430   25022.8   399.6  -66.99750   0.10395   0.23607  -0.49241
  0-1A  ->  4-1A    3.270023   26374.5   379.2  102.39731   0.01291  -0.20840   0.70795
  0-1A  ->  7-3A    3.356063   27068.5   369.4   -0.00000   0.00000   0.00000   0.00000
  0-1A  ->  8-3A    3.428489   27652.6   361.6   -0.00000   0.00000   0.00000   0.00000
  0-1A  ->  5-1A    3.453197   27851.9   359.0   35.04866  -0.07048   0.24669  -0.44041
  0-1A  ->  9-3A    3.548410   28619.9   349.4   -0.00000   0.00000   0.00000   0.00000
  0-1A  -> 10-3A    3.575400   28837.6   346.8   -0.00000   0.00000   0.00000   0.00000
  0-1A  ->  6-1A    3.592523   28975.7   345.1   77.49188   0.13054  -0.26250   0.31744
  0-1A  ->  7-1A    3.671273   29610.8   337.7   67.30578  -0.10206   0.26533  -0.45014
  0-1A  ->  8-1A    3.742426   30184.7   331.3    4.42692   0.02001  -0.08886  -0.00127
  0-1A  ->  9-1A    3.828614   30879.9   323.8  -36.96776  -0.03158  -0.44786   0.63780
  0-1A  -> 10-1A    4.046626   32638.2   306.4   13.08277  -0.13827  -0.02786   0.34679

------------------------------------------------------------------------------------------
                     CD SPECTRUM VIA TRANSITION VELOCITY DIPOLE MOMENTS    
------------------------------------------------------------------------------------------
     Transition      Energy     Energy  Wavelength    R        MX        MY        MZ   
                      (eV)      (cm-1)    (nm)   (1e40*cgs)   (au)      (au)      (au)  
------------------------------------------------------------------------------------------
  0-1A  ->  1-3A    1.846709   14894.7   671.4    0.00000   0.00000   0.00000   0.00000
  0-1A  ->  2-3A    2.172704   17524.0   570.6    0.00000   0.00000   0.00000   0.00000
  0-1A  ->  1-1A    2.437664   19661.1   508.6  -31.35187   0.08642  -0.30260   0.72677
  0-1A  ->  2-1A    2.566084   20696.9   483.2  -53.35742   0.03720  -0.28746   0.48183
  0-1A  ->  3-3A    2.579651   20806.3   480.6    0.00000   0.00000   0.00000   0.00000
  0-1A  ->  4-3A    2.723080   21963.1   455.3    0.00000   0.00000   0.00000   0.00000
  0-1A  ->  5-3A    2.960442   23877.6   418.8    0.00000   0.00000   0.00000   0.00000
  0-1A  ->  6-3A    3.008883   24268.3   412.1    0.00000   0.00000   0.00000   0.00000
  0-1A  ->  3-1A    3.102430   25022.8   399.6  -123.72454   0.10395   0.23607  -0.49241
  0-1A  ->  4-1A    3.270023   26374.5   379.2  -11.77866   0.01291  -0.20840   0.70795
  0-1A  ->  7-3A    3.356063   27068.5   369.4    0.00000   0.00000   0.00000   0.00000
  0-1A  ->  8-3A    3.428489   27652.6   361.6    0.00000   0.00000   0.00000   0.00000
  0-1A  ->  5-1A    3.453197   27851.9   359.0   -7.61778  -0.07048   0.24669  -0.44041
  0-1A  ->  9-3A    3.548410   28619.9   349.4    0.00000   0.00000   0.00000   0.00000
  0-1A  -> 10-3A    3.575400   28837.6   346.8    0.00000   0.00000   0.00000   0.00000
  0-1A  ->  6-1A    3.592523   28975.7   345.1    4.68705   0.13054  -0.26250   0.31744
  0-1A  ->  7-1A    3.671273   29610.8   337.7  -26.46659  -0.10206   0.26533  -0.45014
  0-1A  ->  8-1A    3.742426   30184.7   331.3    5.50338   0.02001  -0.08886  -0.00127
  0-1A  ->  9-1A    3.828614   30879.9   323.8  -92.24204  -0.03158  -0.44786   0.63780
  0-1A  -> 10-1A    4.046626   32638.2   306.4  -34.39466  -0.13827  -0.02786   0.34679

Total run time:       98.223 sec

           *** ORCA-CIS/TD-DFT FINISHED WITHOUT ERROR ***
-----------------------
CIS/TD-DFT TOTAL ENERGY
-----------------------

    E(SCF)  =  -1178.959041219 Eh
    DE(CIS) =      0.089582517 Eh (Root  1)
    ----------------------------- ---------
    E(tot)  =  -1178.869458702 Eh


Maximum memory used throughout the entire CIS-calculation: 204.7 MB
=> NOW LEAVING ORCA_CIS

-------------------------   --------------------
FINAL SINGLE POINT ENERGY     -1178.869458702125
-------------------------   --------------------


------------------------------------------------------------------------------
                              ORCA PROPERTY CALCULATIONS
------------------------------------------------------------------------------

GBWName                                 ... molecule.gbw
Number of atoms                         ...     64
Number of basis functions               ...    581
Max core memory                         ...   4096 MB

Electric properties:
Dipole moment                           ... YES
Quadrupole moment                       ...  NO
Static polarizability (Dipole/Dipole)   ...  NO
Static polarizability (Dipole/Quad.)    ...  NO
Static polarizability (Quad./Quad.)     ...  NO
Static polarizability (Velocity)        ...  NO
Static hyperpolarizability              ...  NO

Atomic electric properties:
Dipole moment                           ...  NO
Quadrupole moment                       ...  NO
Static polarizability                   ...  NO

Choice of electric origin               ... Center of mass
Position of electric origin             ...     1.411757    -0.046082     0.113221

General magnetic properties:
Magnetizability                         ...  NO

EPR properties:
g-Tensor (aka g-matrix)                 ...  NO
Zero-Field splitting spin-orbit         ...  NO
Zero-field splitting spin-spin          ...  NO
Hyperfine couplings                     ...  NO (   0 nuclei)
Quadrupole couplings                    ...  NO (   0 nuclei)
Contact density                         ...  NO (   0 nuclei)

NMR properties:
Chemical shifts                         ...  NO (   0 nuclei)
Spin-rotation constants                 ...  NO (   0 nuclei)
Spin-spin couplings                     ...  NO (   0 nuclei,    0 pairs)

Choice of magnetic origin               ... GIAO
Position of magnetic origin             ...     0.000000     0.000000     0.000000

Properties with geometric perturbations:
SCF Hessian                             ...  NO
IR spectrum                             ...  NO
VCD spectrum                            ...  NO
X-ray spectroscopy properties:
SCF XES/XAS/RIXS spectra                ...  NO

SCF SOC stabilization energy            ...  NO
Diagonal Born-Oppenheimer correction    ...  NO

-------------
DIPOLE MOMENT
-------------

Method             : SCF
Type of density    : Electron Density
Multiplicity       :   1
Irrep              :   0
Energy             : -1178.9590412191791984 Eh
Basis              : AO
                                X                 Y                 Z
Electronic contribution:     44.219000554      -2.023493571       1.265358080
Nuclear contribution   :    -45.269578174       2.798463888      -1.850001795
                        -----------------------------------------
Total Dipole Moment    :     -1.050577621       0.774970316      -0.584643715
                        -----------------------------------------
Magnitude (a.u.)       :      1.430419729
Magnitude (Debye)      :      3.635838006



--------------------
Rotational spectrum 
--------------------
 
Rotational constants in cm-1:             0.007914             0.001393             0.001233 
Rotational constants in MHz :           237.258932            41.772494            36.964270 

Dipole components along the rotational axes: 
x,y,z [a.u.] :    -0.912778     0.461244    -1.000095 
x,y,z [Debye]:    -2.320098     1.172389    -2.542040 

 

Dipole moment calculation done in   0.0 sec 

Maximum memory used throughout the entire PROP-calculation: 42.5 MB

--------------------------------
SUGGESTED CITATIONS FOR THIS RUN
--------------------------------

Below you find a list of papers that are relevant to this ORCA run
We neither can nor want to force you to cite these papers, but we appreciate if you do
You receive ORCA, which is the product of decades of hard work by many enthusiastic individuals, for free
The only thing we kindly ask in return is that you cite our papers,
We deeply appreciate it, if you show your appreciation for ORCA by not just citing the generic ORCA reference.

Please note that relegating all ORCA citations to the supporting information does *not* help us.
SI sections are not indexed - citations you put there will not count into any citation statistics
But we need these citations in order to attract the funding resources that allow us to do what we are doing

Therefore, if you are a happy ORCA user, please consider citing a few of the papers listed below in the main body of your paper

In addition to the list printed below, the program has created the file molecule.bibtex that contains the list in bibtex format
You can import this file easily into all common literature databanks and citation aid programs


List of essential papers. We consider these as the minimum necessary citations

  1. Neese, F.
     Software update: the ORCA program system, version 6.0
     WIRES Comput. Molec. Sci. 2025 15(1), e70019
     doi.org/10.1002/wcms.7019

List of papers to cite with high priority. The work reported in these papers was absolutely
necessary for this run to complete.
Our perspective: the developers of density functionals and basis sets usually get cited in chemistry papers
Good! But without the algorithms to do something with them, the functionals or basis sets would not do anything.
Hence, in our opinion, the algorithm design and method developments papers are equally worthy of getting cited

  1. Neese, F.; Olbrich, G.
     Efficient use of the resolution of the identity approximation in time-dependent density functional calculations with hybrid density functionals
     Chem. Phys. Lett. 2002 362 , 170-178
     doi.org/10.1016/s0009-2614(02)01053-9
  2. Neese, F.
     An improvement of the resolution of the identity approximation for the formation of the Coulomb matrix
     J. Comp. Chem. 2003 24(14), 1740-1747
     doi.org/10.1002/jcc.10318
  3. Neese, F.
     The SHARK Integral Generation and Digestion System
     J. Comp. Chem. 2022 44(3), 381
     doi.org/10.1002/jcc.26942

List of suggested additional citations. These are papers that are important in the 'surrounding' of 
of this run, or papers that preceded the highly important papers. If you like your results we are grateful for a citation.

  1. Neese, F.
     The ORCA program system
     WIRES Comput. Molec. Sci. 2012 2(1), 73-78
     doi.org/10.1002/wcms.81
  2. Neese, F.
     Software update: the ORCA program system, version 4.0
     WIRES Comput. Molec. Sci. 2018 8(1), 1-6
     doi.org/10.1002/wcms.1327
  3. Neese, F.; Wennmohs, F.; Becker, U.; Riplinger, C.
     The ORCA quantum chemistry program package
     J. Chem. Phys. 2020 152(22), 224108
     doi.org/10.1063/5.0004608
  4. Neese, F.
     Software update: The ORCA program system—Version 5.0
     WIRES Comput. Molec. Sci. 2022 12(1), e1606
     doi.org/10.1002/wcms.1606

List of optional additional citations

  1. Neese, F.
     Approximate second-order SCF convergence for spin unrestricted wavefunctions
     Chem. Phys. Lett. 2000 325(1-3), 93-98
     doi.org/10.1016/s0009-2614(00)00662-x

Timings for individual modules:

Sum of individual times          ...      194.845 sec (=   3.247 min)
Startup calculation              ...        3.813 sec (=   0.064 min)   2.0 %
SCF iterations                   ...       92.266 sec (=   1.538 min)  47.4 %
Property integrals               ...        0.297 sec (=   0.005 min)   0.2 %
Property calculations            ...        0.133 sec (=   0.002 min)   0.1 %
CIS module                       ...       98.336 sec (=   1.639 min)  50.5 %
                             ****ORCA TERMINATED NORMALLY****
TOTAL RUN TIME: 0 days 0 hours 3 minutes 15 seconds 116 msec
