
                                 *****************
                                 * O   R   C   A *
                                 *****************

                                            #,                                       
                                            ###                                      
                                            ####                                     
                                            #####                                    
                                            ######                                   
                                           ########,                                 
                                     ,,################,,,,,                         
                               ,,#################################,,                 
                          ,,##########################################,,             
                       ,#########################################, ''#####,          
                    ,#############################################,,   '####,        
                  ,##################################################,,,,####,       
                ,###########''''           ''''###############################       
              ,#####''   ,,,,##########,,,,          '''####'''          '####       
            ,##' ,,,,###########################,,,                        '##       
           ' ,,###''''                  '''############,,,                           
         ,,##''                                '''############,,,,        ,,,,,,###''
      ,#''                                            '''#######################'''  
     '                                                          ''''####''''         
             ,#######,   #######,   ,#######,      ##                                
            ,#'     '#,  ##    ##  ,#'     '#,    #''#        ,####,    ,#,          
            ##       ##  ##   ,#'  ##            #'  '#       #'       ,# #          
            ##       ##  #######   ##           ,######,      #####,      #          
            '#,     ,#'  ##    ##  '#,     ,#' ,#      #,     #,   #      #          
             '#######'   ##     ##  '#######'  #'      '#     '####' #    #          



                #########################################################
                #                        -***-                          #
                #          Department of theory and spectroscopy        #
                #                                                       #
                #                      Frank Neese                      #
                #                                                       #
                #     Directorship, Architecture, Infrastructure        #
                #                    SHARK, DRIVERS                     #
                #        Core code/Algorithms in most modules           #
                #                                                       #
                #        Max Planck Institute fuer Kohlenforschung      #
                #                Kaiser Wilhelm Platz 1                 #
                #                 D-45470 Muelheim/Ruhr                 #
                #                      Germany                          #
                #                                                       #
                #                  All rights reserved                  #
                #                        -***-                          #
                #########################################################


                         Program Version 6.1.0  -  RELEASE   -


 With contributions from (in alphabetic order):
[Max-Planck-Institut fuer Kohlenforschung]                               
  Daniel Aravena         : Magnetic Suceptibility                        
  Michael Atanasov       : Ab Initio Ligand Field Theory (pilot matlab implementation)
  Alexander A. Auer      : GIAO ZORA, VPT2 properties, NMR spectrum      
  Ute Becker             : All parallelization in ORCA, NUMFREQ, NUMCALC 
  Giovanni Bistoni       : ED, misc. LED, open-shell LED, HFLD           
  Dmytro Bykov           : pre 5.0 version of the SCF Hessian            
  Marcos Casanova-Páez   : Triplet and SCS-CIS(D). UHF-(DLPNO)-IP/EA/STEOM-CCSD. UHF-CVS-IP/STEOM-CCSD   
  Vijay G. Chilkuri      : MRCI spin determinant printing, contributions to CSF-ICE 
  Pauline Colinet        : FMM embedding                                 
  Dipayan Datta          : RHF DLPNO-CCSD density                        
  Achintya Kumar Dutta   : EOM-CC, STEOM-CC                              
  Nicolas Foglia         : Exact transition moments, OPA infrastructure, MCD improvements    
  Dmitry Ganyushin       : Spin-Orbit,Spin-Spin,Magnetic field MRCI      
  Miquel Garcia-Rates    : C-PCM and meta-GGA Hessian, CCSD/C-PCM, Gaussian charge scheme 
  Tiago L. C. Gouveia    : GS-ROHF, GS-ROCIS                             
  Yang Guo               : DLPNO-NEVPT2, F12-NEVPT2, CIM, IAO-localization        
  Andreas Hansen         : Spin unrestricted coupled pair/coupled cluster methods 
  Ingolf Harden          : AUTO-CI MPn and infrastructure                
  Benjamin Helmich-Paris : MC-RPA, TRAH-(SCF,CASSCF), AVAS, COSX integrals, SCF dyn. polar., MC-PDFT, srDFT 
  Lee Huntington         : MR-EOM, pCC                                   
  Robert Izsak           : Overlap fitted RIJCOSX, COSX-SCS-MP3, EOM     
  Riya Kayal             : Wick's Theorem for AUTO-CI, AUTO-CI UHF-CCSDT 
  Emily Kempfer          : AUTO-CI RHF CISDT and CCSDT, approximate NEVPT4
  Christian Kollmar      : KDIIS, OOCD, Brueckner-CCSD(T), CCSD density, CASPT2, CASPT2-K, improved NEVPT2 
  Axel Koslowski         : Symmetry handling                             
  Simone Kossmann        : meta-GGA functionals, TD-DFT gradient, OOMP2, (MP2 Hessian; deprecated post 5.0) 
  Lucas Lang             : DCDCAS, Hyperfine gauge corrections, ICE-SOC+SSC
  Marvin Lechner         : AUTO-CI (C++ implementation), FIC-MRCC        
  Spencer Leger          : CASSCF response                               
  Dagmar Lenk            : GEPOL surface, SMD, ORCA-2-JSON               
  Dimitrios Liakos       : Extrapolation schemes; Compound Job, Property file
  Dimitrios Manganas     : Further ROCIS development; embedding schemes. LFT, Crystal Embedding 
  Dimitrios Pantazis     : SARC Basis sets                               
  Anastasios Papadopoulos: AUTO-CI, single reference methods and gradients 
  Taras Petrenko         : pre 6.0 DFT Hessian and TD-DFT gradient,  ECA, NRVS 
  Petra Pikulova         : Analytic Raman intensities                    
  Peter Pinski           : DLPNO-MP2, DLPNO-MP2 Gradient                 
  Shashank Vittal Rao    : ES-AILFT, MagRelax                            
  Christoph Reimann      : Effective Core Potentials                     
  Marius Retegan         : Local ZFS, SOC                                
  Christoph Riplinger    : Optimizer, TS searches, QM/MM, DLPNO-CCSD(T), (RO)-DLPNO pert. Triples 
  Michael Roemelt        : Original ROCIS implementation, recursive CI coupling coefficients
  Masaaki Saitow         : Open-shell DLPNO-CCSD energy and density      
  Barbara Sandhoefer     : DKH picture change effects                    
  Yorick L. A. Schmerwitz: GMF and freeze-and-release deltaSCF, NEB S-IDPP initial path                    
  Kantharuban Sivalingam : CASSCF convergence/infrastructure, NEVPT2, NEVPT3, NEVPT4(SD), FIC-MRCI and CEPA variants
  Bernardo de Souza      : ESD, SOC TD-DFT                               
  Georgi L. Stoychev     : AutoAux, RI-MP2 NMR, DLPNO-MP2 response, X2C  
  Van Anh Tran           : RI-MP2 g-tensors                              
  Willem Van den Heuvel  : Paramagnetic NMR                              
  Zikuan Wang            : NOTCH, Electric field optimization            
  Frank Wennmohs         : Technical directorship and infrastructure     
  Hang Xu                : AUTO-CI-Response properties                   
                                                                         
[FACCTs GmbH]                                                            
  Markus Bursch, Nicolas Foglia, Miquel Garcia-Rates, Ingolf Harden, Hagen Neugebauer, Anastasios Papadopoulos, 
  Christoph Riplinger, Bernardo de Souza, Georgi L. Stoychev                                                    
                                                                 
  APM, various basis sets, CI-OPT, improved COSX, DLPNO-Multilevel,           
  DOCKER, DRACO, updates on ESD, Fragmentator, GOAT, IRC, LR-CPCM, L-BFGS, MBIS, meta-GGA TD-DFT gradient, ML-optimized integration grids, 
  MM, NACMEs, nearIR, NEB, NEB-TS, NL-DFT gradient (VV10), 2- and 3-layer-ONIOM, interface openCOSMO-RS, QMMM,   
  Crystal-QMMM, RESP, rigid body optimization, SF, symmetry and pop. for TD-DFT, various functionals, SOLVATOR                                   
                                                                         
[Other institutions]                                                     
  V. Asgeirsson          : NEB                                           
  Christoph Bannwarth    : sTDA-DFT, sTD-DFT, PBEh-3c, B97-3c, D3        
  Giovanni Bistoni       : ETS/NOCV, ADLD/ADEX, COVALED                  
  Martin Brehm           : Molecular dynamics                            
  Ronald Cardenas        : ETS/NOCV                                      
  Martina Colucci        : COVALED                                       
  Sebastian Ehlert       : rSCAN, r2SCAN, r2SCAN-3c, D4, dhf basis sets  
  Marvin Friede          : D4 for Fr, Ra, Ac-Lr                          
  Lars Goerigk           : TD-DFT with DH, B97 family of functionals     
  Stefan Grimme          : VdW corrections, initial TS optimization, DFT functionals, gCP, sTDA/sTD-DF 
  Waldemar Hujo          : DFT-NL                                        
  H. Jonsson             : NEB                                           
  Holger Kruse           : gCP                                           
  Marcel Mueller         : wB97X-3c, vDZP basis set                      
  Hagen Neugebauer       : wr2SCAN, Native XTB                           
  Gianluca Regni         : ADLD/ADEX                                     
  Tobias Risthaus        : pre 6.0 range-separated hybrid DFT and stability analysis
  Lukas Wittmann         : regularized MP2, r2SCAN double-hybrids, wr2SCAN        
                                                                         
We gratefully acknowledge several colleagues who have allowed us to      
interface, adapt or use parts of their codes:                            
  Ed Valeev, F. Pavosevic, A. Kumar             : LibInt (2-el integral package), F12 methods 
  Garnet Chan, S. Sharma, J. Yang, R. Olivares  : DMRG                   
  Ulf Ekstrom                                   : XCFun DFT Library      
  Mihaly Kallay                                 : mrcc  (arbitrary order and MRCC methods)
  Frank Weinhold                                : gennbo (NPA and NBO analysis)           
  Simon Mueller                                 : openCOSMO-RS                            
  Christopher J. Cramer and Donald G. Truhlar   : smd solvation model                     
  S Lehtola, MJT Oliveira, MAL Marques          : LibXC Library                           
  Liviu Ungur et al                             : ANISO software                          


 Your calculation uses the libint2 library for the computation of 2-el integrals
 For citations please refer to: http://libint.valeyev.net

 Your ORCA version has been built with support for libXC version: 7.0.0
 For citations please refer to: https://libxc.gitlab.io

 This ORCA versions uses:
   CBLAS   interface :  Fast vector & matrix operations
   LAPACKE interface :  Fast linear algebra routines
   Shared memory     :  Shared parallel matrices


  ***********************************
  * Starting time: Mon Dec  8 21:46:10 2025
  * Host name:     RISHILAPTOP
  * Process ID:    8132
  * Working dir.:  C:\Users\srinr\OneDrive\Desktop\ChemLLM Research 2025-2026 Project\testing_orca
  ***********************************

Warning: RI is on but no J-basis has been assigned. Assigning Def2/J (nothing to worry about!)
================================================================================

----- Orbital basis set information -----
Your calculation utilizes the basis: def2-SVP
   F. Weigend and R. Ahlrichs, Phys. Chem. Chem. Phys. 7, 3297 (2005).

----- AuxJ basis set information -----
Your calculation utilizes the auxiliary basis: def2/J
   H-Rn: F. Weigend, Phys. Chem. Chem. Phys. 8, 1057 (2006).
   Fr-Lr: K. Eichkorn, F. Weigend, O. Treutler, R. Ahlrichs; Theor. Chem. Acc. 97, 119 (1997).

================================================================================
                                        WARNINGS
                       Please study these warnings very carefully!
================================================================================

WARNING: Old DensityContainer found on disk!
         Will remove this file - 
         If you want to keep old densities, please start your calculation with a different basename. 


WARNING: CIS/ROCIS methods need fully converged wavefunctions
  ===> : Setting SCFConvForced true
         You can overwrite this default with %scf ConvForced false 


================================================================================
                                       INPUT FILE
================================================================================
NAME = molecule.inp
|  1> ! BP86 def2-SVP TightSCF
|  2> 
|  3> %tddft
|  4>   Nroots   10
|  5>   triplets true
|  6> end
|  7> 
|  8> * xyz 0 1
|  9> O   0.008935  0.404022  0.000000
| 10> H  -0.787313 -0.184699  0.000000
| 11> H   0.778378 -0.219323  0.000000
| 12> *
| 13> 
| 14>                          ****END OF INPUT****
================================================================================

                       ****************************
                       * Single Point Calculation *
                       ****************************

---------------------------------
CARTESIAN COORDINATES (ANGSTROEM)
---------------------------------
  O      0.008935    0.404022    0.000000
  H     -0.787313   -0.184699    0.000000
  H      0.778378   -0.219323    0.000000

----------------------------
CARTESIAN COORDINATES (A.U.)
----------------------------
  NO LB      ZA    FRAG     MASS         X           Y           Z
   0 O     8.0000    0    15.999    0.016885    0.763491    0.000000
   1 H     1.0000    0     1.008   -1.487806   -0.349031    0.000000
   2 H     1.0000    0     1.008    1.470921   -0.414460    0.000000

--------------------------------
INTERNAL COORDINATES (ANGSTROEM)
--------------------------------
 O      0   0   0     0.000000000000     0.00000000     0.00000000
 H      1   0   0     0.990254155934     0.00000000     0.00000000
 H      1   2   0     0.990253260168   104.51013468     0.00000000

---------------------------
INTERNAL COORDINATES (A.U.)
---------------------------
 O      0   0   0     0.000000000000     0.00000000     0.00000000
 H      1   0   0     1.871309157693     0.00000000     0.00000000
 H      1   2   0     1.871307464941   104.51013468     0.00000000

---------------------
BASIS SET INFORMATION
---------------------
There are 2 groups of distinct atoms

 Group   1 Type O   : 7s4p1d contracted to 3s2p1d pattern {511/31/1}
 Group   2 Type H   : 4s1p contracted to 2s1p pattern {31/1}

Atom   0O    basis set group =>   1
Atom   1H    basis set group =>   2
Atom   2H    basis set group =>   2
---------------------------------
AUXILIARY/J BASIS SET INFORMATION
---------------------------------
There are 2 groups of distinct atoms

 Group   1 Type O   : 12s5p4d2f1g contracted to 6s4p3d1f1g pattern {711111/2111/211/2/1}
 Group   2 Type H   : 5s2p1d contracted to 3s1p1d pattern {311/2/1}

Atom   0O    basis set group =>   1
Atom   1H    basis set group =>   2
Atom   2H    basis set group =>   2

Checking for AutoStart:
The File: molecule.gbw exists
Trying to determine its content:
     ... Fine, the file contains calculation information
     ... Fine, the calculation information was read
     ... Fine, the file contains a basis set
     ... Fine, the basis set was read
     ... Fine, the file contains a geometry
     ... Fine, the geometry was read
     ... Fine, the file contains a set of orbitals
     ... Fine, the orbitals can be read
     => possible old guess file was deleted
     => GBW file was renamed to GES file
     => GES file is set as startup file
     => Guess is set to MORead
     ... now leaving AutoStart

------------------------------------------------------------------------------
                             ORCA STARTUP CALCULATIONS
                           -- RI-GTO INTEGRALS CHOSEN --
------------------------------------------------------------------------------
------------------------------------------------------------------------------
                   ___                                                        
                  /   \      - P O W E R E D   B Y -                         
                 /     \                                                     
                 |  |  |   _    _      __       _____    __    __             
                 |  |  |  | |  | |    /  \     |  _  \  |  |  /  |          
                  \  \/   | |  | |   /    \    | | | |  |  | /  /          
                 / \  \   | |__| |  /  /\  \   | |_| |  |  |/  /          
                |  |  |   |  __  | /  /__\  \  |    /   |      \           
                |  |  |   | |  | | |   __   |  |    \   |  |\   \          
                \     /   | |  | | |  |  |  |  | |\  \  |  | \   \       
                 \___/    |_|  |_| |__|  |__|  |_| \__\ |__|  \__/        
                                                                              
                      - O R C A' S   B I G   F R I E N D -                    
                                      &                                       
                       - I N T E G R A L  F E E D E R -                       
                                                                              
 v1 FN, 2020, v2 2021, v3 2022-2024                                           
------------------------------------------------------------------------------


----------------------
SHARK INTEGRAL PACKAGE
----------------------

Number of atoms                             ...      3
Number of basis functions                   ...     24
Number of shells                            ...     12
Maximum angular momentum                    ...      2
Integral batch strategy                     ... SHARK/LIBINT Hybrid
RI-J (if used) integral strategy            ... SPLIT-RIJ (Revised 2003 algorithm where possible)
Printlevel                                  ...      1
Contraction scheme used                     ... SEGMENTED contraction
Prescreening option                         ... SCHWARTZ
   Thresh                                   ... 2.500e-11
   Tcut                                     ... 2.500e-12
   Tpresel                                  ... 2.500e-12 
Coulomb Range Separation                    ... NOT USED
Exchange Range Separation                   ... NOT USED
Multipole approximations                    ... NOT USED
Finite Nucleus Model                        ... NOT USED
CABS basis                                  ... NOT available
Auxiliary Coulomb fitting basis             ... AVAILABLE
   # of basis functions in Aux-J            ...     71
   # of shells in Aux-J                     ...     25
   Maximum angular momentum in Aux-J        ...      4
Auxiliary J/K fitting basis                 ... NOT available
Auxiliary Correlation fitting basis         ... NOT available
Auxiliary 'external' fitting basis          ... NOT available

Checking pre-screening integrals            ... done (  0.0 sec) Dimension = 12
   => SHARK Basis and OBASIS are compatible. Storing Pre-screening
Shell pair information
Shell pair cut-off parameter TPreSel        ...   2.5e-12
Total number of shell pairs                 ...        78
Shell pairs after pre-screening             ...        78
Total number of primitive shell pairs       ...       272
Primitive shell pairs kept                  ...       265
          la=0 lb=0:     28 shell pairs
          la=1 lb=0:     28 shell pairs
          la=1 lb=1:     10 shell pairs
          la=2 lb=0:      7 shell pairs
          la=2 lb=1:      4 shell pairs
          la=2 lb=2:      1 shell pairs

Checking whether 4 symmetric matrices of dimension 24 fit in memory
:Max Core in MB      =   4096.00
 MB in use           =      3.20
 MB left             =   4092.80
 MB needed           =      0.01
 Data fit in memory  = YES
Calculating RI/J V-Matrix + Cholesky decomp.... done (  0.0 sec)
Calculating Nuclear repulsion               ... done (  0.0 sec) ENN=      8.888068321640 Eh

Diagonalization of the overlap matrix:
Smallest eigenvalue                        ... 4.008e-02
Time for diagonalization                   ...    0.001 sec
Threshold for overlap eigenvalues          ... 1.000e-07
Number of eigenvalues below threshold      ... 0
Time for construction of square roots      ...    0.000 sec
Total time needed                          ...    0.002 sec

-------------------
DFT GRID GENERATION
-------------------

General Integration Accuracy     IntAcc      ... 4.388
Radial Grid Type                 RadialGrid  ... OptM3 with GC (2021)
Angular Grid (max. ang.)         AngularGrid ... 4 (Lebedev-302)
Angular grid pruning method      GridPruning ... 4 (adaptive)
Weight generation scheme         WeightScheme... mBecke (2022)
Basis function cutoff            BFCut       ... 1.0000e-11
Integration weight cutoff        WCut        ... 1.0000e-14
Partially contracted basis set               ... off
Rotationally invariant grid construction     ... off
Angular grids for H and He will be reduced by one unit

Total number of grid points                  ...    12757
Total number of batches                      ...      201
Average number of points per batch           ...       63
Average number of grid points per atom       ...     4252
Grids setup in   0.0 sec
Initializing property integral containers    ... done (  0.0 sec)

SHARK setup successfully completed in   0.1 seconds

Maximum memory used throughout the entire STARTUP-calculation: 8.8 MB
-------------------------------------------------------------------------------
                                 ORCA GUESS
                   Start orbitals & Density for SCF / CASSCF
-------------------------------------------------------------------------------

------------
SCF SETTINGS
------------
Hamiltonian:
 Density Functional     Method          .... DFT(GTOs)
 Exchange Functional    Exchange        .... B88
   X-Alpha parameter    XAlpha          ....  0.666667
   Becke's b parameter  XBeta           ....  0.004200
 Correlation Functional Correlation     .... P86
 LDA part of GGA corr.  LDAOpt          .... PW91-LDA
 Gradients option       PostSCFGGA      .... off
   NL short-range parameter             ....  4.400000
 RI-approximation to the Coulomb term is turned on
   Number of AuxJ basis functions       .... 71


General Settings:
 Integral files         IntName         .... molecule
 Hartree-Fock type      HFTyp           .... RHF
 Total Charge           Charge          ....    0
 Multiplicity           Mult            ....    1
 Number of Electrons    NEL             ....   10
 Basis Dimension        Dim             ....   24
 Nuclear Repulsion      ENuc            ....      8.8880683216 Eh

Convergence Acceleration:
 AO-DIIS                CNVDIIS         .... on
   Start iteration      DIISMaxIt       ....    12
   Startup error        DIISStart       ....  0.200000
   # of expansion vecs  DIISMaxEq       ....     5
   Bias factor          DIISBfac        ....   1.050
   Max. coefficient     DIISMaxC        ....  10.000
 MO-DIIS                CNVKDIIS        .... off
 Trust-Rad. Augm. Hess. CNVTRAH         .... auto
   Auto Start mean grad. ratio tolernc. ....  1.125000
   Auto Start start iteration           ....     1
   Auto Start num. interpolation iter.  ....    10
   Max. Number of Micro iterations      ....    24
   Max. Number of Macro iterations      .... Maxiter - #DIIS iter
   Number of Davidson start vectors     ....     2
   Converg. threshold    (grad. norm)   ....   1.000e-05
   Grad. Scal. Fac. for Micro threshold ....   0.100
   Minimum threshold for Micro iter.    ....   1.000e-02
   NR start threshold (gradient norm)   ....   1.000e-04
   Initial trust radius                 ....   0.400
   Minimum AH scaling param. (alpha)    ....   1.000
   Maximum AH scaling param. (alpha)    .... 1000.000
   Quad. conv. algorithm                .... NR
   White noise on init. David. guess    .... on
   Maximum white noise                  ....   0.010
   Pseudo random numbers                .... off
   Inactive MOs                         .... canonical
   Orbital update algorithm             .... Taylor
   Preconditioner                       .... Diag
   Full preconditioner red. dimension   ....   250
 SOSCF                 CNVSOSCF           .... on
   Start iteration     SOSCFMaxIt         ....   150
   Startup grad/error  SOSCFStart         ....  0.003300
   Hessian update      SOSCFHessUp        .... L-BFGS
   Autom. constraints  SOSCFAutoConstrain .... off
 Level Shifting         CNVShift        .... on
   Level shift para.    LevelShift      ....    0.2500
   Turn off err/grad.   ShiftErr        ....    0.0010
 Zerner damping         CNVZerner       .... off
 Static damping         CNVDamp         .... on
   Fraction old density DampFac         ....    0.7000
   Max. Damping (<1)    DampMax         ....    0.9800
   Min. Damping (>=0)   DampMin         ....    0.0000
   Turn off err/grad.   DampErr         ....    0.1000

SCF Procedure:
 Maximum # iterations   MaxIter         ....   125
 SCF integral mode      SCFMode         .... Direct
   Integral package                     .... SHARK and LIBINT hybrid scheme
 Reset frequency        DirectResetFreq ....    20
 Integral Threshold     Thresh          ....  2.500e-11 Eh
 Primitive CutOff       TCut            ....  2.500e-12 Eh

Convergence Tolerance:
 Convergence Check Mode ConvCheckMode   .... Total+1el-Energy
 Convergence forced     ConvForced      .... 1
 Energy Change          TolE            ....  1.000e-08 Eh
 1-El. energy change                    ....  1.000e-05 Eh
 Orbital Gradient       TolG            ....  1.000e-05
 Orbital Rotation angle TolX            ....  1.000e-05
 DIIS Error             TolErr          ....  5.000e-07

---------------------
INITIAL GUESS: MOREAD
---------------------
Guess MOs are being read from file: molecule.ges
Input Geometry matches current geometry (good)
Input basis set matches current basis set (good)
Occupation numbers will be reassigned to an Aufbau configuration
MOs were renormalized
MOs were reorthogonalized (Cholesky)
                      ------------------
                      INITIAL GUESS DONE (   0.0 sec)
                      ------------------
             **** ENERGY FILE WAS UPDATED (molecule.en.tmp) ****
Finished Guess after   0.1 sec
Maximum memory used throughout the entire GUESS-calculation: 5.4 MB

-------------------------------------------------------------------------------------------
                                      ORCA LEAN-SCF
                              memory conserving SCF solver
-------------------------------------------------------------------------------------------

----------------------------------------D-I-I-S--------------------------------------------
Iteration    Energy (Eh)           Delta-E    RMSDP     MaxDP     DIISErr   Damp  Time(sec)
-------------------------------------------------------------------------------------------
               ***  Starting incremental Fock matrix formation  ***
                              *** Initializing SOSCF ***
---------------------------------------S-O-S-C-F--------------------------------------
Iteration    Energy (Eh)           Delta-E    RMSDP     MaxDP     MaxGrad    Time(sec)
--------------------------------------------------------------------------------------
    1    -76.3601805825881002     0.00e+00  5.98e-09  3.61e-08  4.78e-09     0.1
               *** Restarting incremental Fock matrix formation ***
    2    -76.3601805825882849    -1.85e-13  1.47e-09  9.48e-09  3.34e-09     0.1
                  *** Gradient check signals convergence ***

               *****************************************************
               *                     SUCCESS                       *
               *           SCF CONVERGED AFTER   2 CYCLES          *
               *****************************************************

             **** ENERGY FILE WAS UPDATED (molecule.en.tmp) ****

----------------
TOTAL SCF ENERGY
----------------

Total Energy       :        -76.36018058246459 Eh           -2077.86615 eV

Components:
Nuclear Repulsion  :          8.88806832164036 Eh             241.85663 eV
Electronic Energy  :        -85.24824890410494 Eh           -2319.72279 eV
One Electron Energy:       -122.53949053362167 Eh           -3334.46906 eV
Two Electron Energy:         37.29124162951673 Eh            1014.74627 eV

Virial components:
Potential Energy   :       -152.09552582718013 Eh           -4138.72967 eV
Kinetic Energy     :         75.73534524471553 Eh            2060.86352 eV
Virial Ratio       :          2.00825024743375

DFT components:
N(Alpha)           :        4.999998378942 electrons
N(Beta)            :        4.999998378942 electrons
N(Total)           :        9.999996757883 electrons
E(X)               :       -8.965219817481 Eh       
E(C)               :       -0.363041665074 Eh       
E(XC)              :       -9.328261482556 Eh       

---------------
SCF CONVERGENCE
---------------

  Last Energy change         ...    1.8474e-13  Tolerance :   1.0000e-08
  Last MAX-Density change    ...    9.4776e-09  Tolerance :   1.0000e-07
  Last RMS-Density change    ...    1.4748e-09  Tolerance :   5.0000e-09
  Last DIIS Error            ...    2.9727e-08  Tolerance :   5.0000e-07
  Last Orbital Gradient      ...    3.3395e-09  Tolerance :   1.0000e-05
  Last Orbital Rotation      ...    1.0010e-08  Tolerance :   1.0000e-05


----------------
ORBITAL ENERGIES
----------------

  NO   OCC          E(Eh)            E(eV) 
   0   2.0000     -18.762515      -510.5540 
   1   2.0000      -0.882811       -24.0225 
   2   2.0000      -0.454240       -12.3605 
   3   2.0000      -0.308053        -8.3826 
   4   2.0000      -0.231062        -6.2875 
   5   0.0000       0.025563         0.6956 
   6   0.0000       0.101042         2.7495 
   7   0.0000       0.505535        13.7563 
   8   0.0000       0.551490        15.0068 
   9   0.0000       0.860418        23.4132 
  10   0.0000       0.862637        23.4735 
  11   0.0000       0.953706        25.9517 
  12   0.0000       1.036636        28.2083 
  13   0.0000       1.276975        34.7483 
  14   0.0000       1.359549        36.9952 
  15   0.0000       1.484280        40.3893 
*Only the first 10 virtual orbitals were printed.

                    ********************************
                    * MULLIKEN POPULATION ANALYSIS *
                    ********************************

-----------------------
MULLIKEN ATOMIC CHARGES
-----------------------
   0 O :   -0.317885
   1 H :    0.158942
   2 H :    0.158943
Sum of atomic charges:    0.0000000

--------------------------------
MULLIKEN REDUCED ORBITAL CHARGES
--------------------------------
  0 O s       :     3.714638  s :     3.714638
      pz      :     1.960532  p :     4.593573
      px      :     1.140635
      py      :     1.492405
      dz2     :     0.001806  d :     0.009675
      dxz     :     0.000001
      dyz     :     0.001175
      dx2y2   :     0.000330
      dxy     :     0.006363

  1 H s       :     0.774258  s :     0.774258
      pz      :     0.019146  p :     0.066799
      px      :     0.027099
      py      :     0.020554

  2 H s       :     0.774258  s :     0.774258
      pz      :     0.019146  p :     0.066800
      px      :     0.026402
      py      :     0.021251



                     *******************************
                     * LOEWDIN POPULATION ANALYSIS *
                     *******************************

----------------------
LOEWDIN ATOMIC CHARGES
----------------------
   0 O :   -0.170386
   1 H :    0.085193
   2 H :    0.085193

-------------------------------
LOEWDIN REDUCED ORBITAL CHARGES
-------------------------------
  0 O s       :     3.468621  s :     3.468621
      pz      :     1.900268  p :     4.683903
      px      :     1.222071
      py      :     1.561564
      dz2     :     0.003783  d :     0.017862
      dxz     :     0.000000
      dyz     :     0.000420
      dx2y2   :     0.000052
      dxy     :     0.013607

  1 H s       :     0.749806  s :     0.749806
      pz      :     0.049656  p :     0.165001
      px      :     0.059051
      py      :     0.056293

  2 H s       :     0.749806  s :     0.749806
      pz      :     0.049656  p :     0.165001
      px      :     0.056519
      py      :     0.058826



                      *****************************
                      * MAYER POPULATION ANALYSIS *
                      *****************************

  NA   - Mulliken gross atomic population
  ZA   - Total nuclear charge
  QA   - Mulliken gross atomic charge
  VA   - Mayer's total valence
  BVA  - Mayer's bonded valence
  FA   - Mayer's free valence

  ATOM       NA         ZA         QA         VA         BVA        FA
  0 O      8.3179     8.0000    -0.3179     2.0030     2.0030     0.0000
  1 H      0.8411     1.0000     0.1589     1.0080     1.0080    -0.0000
  2 H      0.8411     1.0000     0.1589     1.0080     1.0080     0.0000

  Mayer bond orders larger than 0.100000
B(  0-O ,  1-H ) :   1.0015 B(  0-O ,  2-H ) :   1.0015 

-------
TIMINGS
-------

Total SCF time: 0 days 0 hours 0 min 0 sec 

Total time                  ....       0.369 sec
Sum of individual times     ....       0.266 sec  ( 72.1%)

SCF preparation             ....       0.025 sec  (  6.8%)
Fock matrix formation       ....       0.047 sec  ( 12.7%)
  Startup                   ....       0.002 sec  (  4.3% of F)
  Split-RI-J                ....       0.006 sec  ( 12.8% of F)
  XC integration            ....       0.047 sec  (100.0% of F)
    Basis function eval.    ....       0.015 sec  ( 31.9% of XC)
    Density eval.           ....       0.006 sec  ( 12.8% of XC)
    XC-Functional eval.     ....       0.015 sec  ( 31.9% of XC)
    XC-Potential eval.      ....       0.001 sec  (  2.1% of XC)
Diagonalization             ....       0.000 sec  (  0.0%)
Density matrix formation    ....       0.020 sec  (  5.4%)
Total Energy calculation    ....       0.020 sec  (  5.4%)
Population analysis         ....       0.056 sec  ( 15.2%)
Orbital Transformation      ....       0.011 sec  (  3.0%)
Orbital Orthonormalization  ....       0.000 sec  (  0.0%)
DIIS solution               ....       0.037 sec  ( 10.0%)
SOSCF solution              ....       0.050 sec  ( 13.6%)
Finished LeanSCF after   0.5 sec

Maximum memory used throughout the entire LEANSCF-calculation: 4.5 MB

------------------------------------------------------------------------------
                         ORCA PROPERTY INTEGRAL CALCULATIONS
------------------------------------------------------------------------------

GBWName                                   ... molecule.gbw
Number of atoms                           ...      3
Number of basis functions                 ...     24
Max core memory                           ...   4096 MB

Dipole integrals                          ... YES
Quadrupole integrals                      ...  NO
Linear momentum integrals                 ... YES
Angular momentum integrals                ... YES
Higher moments length integrals           ...  NO
Higher moments velocity integrals         ...  NO
Kinetic energy integrals                  ...  NO
GIAO right hand sides                     ...  NO
GIAO dipole derivative integrals          ...  NO
SOC integrals                             ...  NO
EPR diamagnetic integrals (GIAO)          ...  NO
EPR gauge integrals                       ...  NO
Field gradient integrals                  ...  NO (   0 nuclei)
Spin-dipole/Fermi contact integrals       ...  NO (   0 nuclei)
Contact density integrals                 ...  NO (   0 nuclei)
Nucleus-orbit integrals                   ...  NO (   0 nuclei)
Geometric perturbations                   ...  NO (   3 nuclei)

Choice of electric origin   ... Center of mass
Position of electric origin ... (  0.0141,  0.6353,  0.0000) 
Choice of magnetic origin   ... GIAO
Position of magnetic origin ... (  0.0000,  0.0000,  0.0000) 

Calculating integrals                     ... Electric Dipole (Length)     done (  0.0 sec)
Calculating integrals                     ... Linear Momentum              done (  0.0 sec)
Calculating integrals                     ... Angular Momentum  (ElOri)    done (  0.0 sec)

Property integrals calculated in   0.1 sec

Maximum memory used throughout the entire PROPINT-calculation: 5.5 MB
------------------------------------------------------------------------------
                        ORCA TD-DFT/TDA CALCULATION
------------------------------------------------------------------------------

Input orbitals are from        ... molecule.gbw
CI-vector output               ... molecule.cis
Solver                         ... FN-2001
Tamm-Dancoff approximation     ... operative
CIS-Integral strategy          ... AO-integrals
Integral handling              ... AO integral Direct
Max. core memory used          ... 4096 MB
Reference state                ... RHF
Generation of triplets         ... on
Follow IRoot                   ... off
Number of operators            ... 1
Orbital ranges used for CIS calculation:
 Operator 0:  Orbitals   1...  4  to   5... 23
XAS localization array:
 Operator 0:  Orbitals  -1... -1

-------------------
XC-INTEGRATION GRID
-------------------

General Integration Accuracy     IntAcc      ... 3.467
Radial Grid Type                 RadialGrid  ... OptM3 with GC (2021)
Angular Grid (max. ang.)         AngularGrid ... 1 (Lebedev-50)
Angular grid pruning method      GridPruning ... 4 (adaptive)
Weight generation scheme         WeightScheme... mBecke (2022)
Basis function cutoff            BFCut       ... 1.0000e-11
Integration weight cutoff        WCut        ... 1.0000e-14
Partially contracted basis set               ... off
Rotationally invariant grid construction     ... off
Angular grids for H and He will be reduced by one unit

Total number of grid points                  ...     1830
Total number of batches                      ...       30
Average number of points per batch           ...       61
Average number of grid points per atom       ...      610

---------------
TD-DFT XC SETUP
---------------

DFT calculation                         ... on
Name of the grid file                   ... molecule.grid_cis.tmp
RI-approximation                        ... on
Aux-basis dimension                     ... 0
Exchange functional (TD-DFT)            ... B88
   X-Alpha parameter    XAlpha (TD-DFT) ...  0.666667
   Becke's b parameter  XBeta (TD-DFT)  ...  0.004200
Correlation functional (TD-DFT)         ... P86
 LDA part of GGA corr.  LDAOpt (TD-DFT) ... PW91-LDA

Building densities             ... done
Calculating rho(r) on the grid ... done
Building xc-kernel on the grid ... done
                    *** TD-DFT CALCULATION INITIALIZED ***

------------------------
DAVIDSON-DIAGONALIZATION
------------------------

Dimension of the eigenvalue problem            ...     76
Number of roots to be determined               ...     10
Maximum size of the expansion space            ...     76
Maximum number of iterations                   ...    100
Convergence tolerance for the residual         ...    2.500e-07
Convergence tolerance for the energies         ...    2.500e-07
Orthogonality tolerance                        ...    1.000e-14
Level Shift                                    ...    0.000e+00
Constructing the preconditioner                ... o.k.
Building the initial guess                     ... o.k.
Number of trial vectors determined             ...     76


                       ****Iteration    0****
   Time for iteration     :  TOTAL=0.8 TRAFO=0.8 RIJ=0.0 XC=0.0
   Size of expansion space: 30
   Lowest Energy          :     0.268004865670
   Maximum Energy change  :     0.870955814858 (vector 9)
   Maximum residual norm  :     0.008659226863

                       ****Iteration    1****
   Time for iteration     :  TOTAL=0.1 TRAFO=0.1 RIJ=0.0 XC=0.0
   Size of expansion space: 40
   Lowest Energy          :     0.266965888684
   Maximum Energy change  :     0.004547036742 (vector 7)
   Maximum residual norm  :     0.000005732099

                       ****Iteration    2****
   Time for iteration     :  TOTAL=0.1 TRAFO=0.1 RIJ=0.0 XC=0.0
   Size of expansion space: 50
   Lowest Energy          :     0.266965193837
   Maximum Energy change  :     0.000002830322 (vector 7)
   Maximum residual norm  :     0.000000002477

      *** CONVERGENCE OF RESIDUAL NORM REACHED ***

Storing the converged CI vectors               ... molecule.cis1

                 *** DAVIDSON DONE ***

Total time for solving the CIS problem:     4.659sec

------------------------------------
TD-DFT/TDA EXCITED STATES (SINGLETS)
------------------------------------

the weight of the individual excitations are printed if larger than 1.0e-02

STATE  1:  E=   0.266965 au      7.264 eV    58592.1 cm**-1 <S**2> =   0.000000 Mult 1
     4a ->   5a  :     0.998562 (c= -0.99928094)

STATE  2:  E=   0.336612 au      9.160 eV    73877.8 cm**-1 <S**2> =   0.000000 Mult 1
     4a ->   6a  :     0.999680 (c=  0.99983994)

STATE  3:  E=   0.352483 au      9.592 eV    77361.1 cm**-1 <S**2> =   0.000000 Mult 1
     2a ->   6a  :     0.015160 (c=  0.12312747)
     3a ->   5a  :     0.978264 (c= -0.98907228)

STATE  4:  E=   0.427412 au     11.630 eV    93806.0 cm**-1 <S**2> =   0.000000 Mult 1
     2a ->   5a  :     0.014330 (c= -0.11970901)
     3a ->   6a  :     0.976507 (c=  0.98818345)

STATE  5:  E=   0.499409 au     13.590 eV   109607.6 cm**-1 <S**2> =   0.000000 Mult 1
     2a ->   5a  :     0.976909 (c= -0.98838731)
     3a ->   6a  :     0.012602 (c= -0.11226022)

STATE  6:  E=   0.613756 au     16.701 eV   134703.8 cm**-1 <S**2> =   0.000000 Mult 1
     1a ->   5a  :     0.012563 (c= -0.11208369)
     2a ->   6a  :     0.922251 (c=  0.96033885)
     2a ->   7a  :     0.015323 (c= -0.12378646)
     3a ->   8a  :     0.011242 (c= -0.10602960)
     4a ->  10a  :     0.015274 (c=  0.12358888)

STATE  7:  E=   0.738123 au     20.085 eV   161999.2 cm**-1 <S**2> =   0.000000 Mult 1
     4a ->   7a  :     0.999603 (c=  0.99980136)

STATE  8:  E=   0.799800 au     21.764 eV   175535.8 cm**-1 <S**2> =   0.000000 Mult 1
     4a ->   8a  :     0.994972 (c= -0.99748293)

STATE  9:  E=   0.855041 au     23.267 eV   187659.7 cm**-1 <S**2> =   0.000000 Mult 1
     1a ->   6a  :     0.011856 (c= -0.10888468)
     2a ->   8a  :     0.058089 (c=  0.24101686)
     3a ->   7a  :     0.918181 (c= -0.95821740)

STATE 10:  E=   0.870390 au     23.685 eV   191028.5 cm**-1 <S**2> =   0.000000 Mult 1
     1a ->   5a  :     0.062531 (c= -0.25006158)
     2a ->   7a  :     0.024162 (c= -0.15544291)
     3a ->   8a  :     0.905153 (c=  0.95139545)


                  ********************************
                  * Entering triplet calculation *
                  ********************************

------------------------
DAVIDSON-DIAGONALIZATION
------------------------

Dimension of the eigenvalue problem            ...     76
Number of roots to be determined               ...     10
Maximum size of the expansion space            ...     76
Maximum number of iterations                   ...    100
Convergence tolerance for the residual         ...    2.500e-07
Convergence tolerance for the energies         ...    2.500e-07
Orthogonality tolerance                        ...    1.000e-14
Level Shift                                    ...    0.000e+00
Constructing the preconditioner                ... o.k.
Building the initial guess                     ... o.k.
Number of trial vectors determined             ...     76


                       ****Iteration    0****
   Time for iteration     :  TOTAL=0.6 TRAFO=0.5 XC=0.0
   Size of expansion space: 30
   Lowest Energy          :     0.242167806063
   Maximum Energy change  :     0.822021702373 (vector 9)
   Maximum residual norm  :     0.001245197891

                       ****Iteration    1****
   Time for iteration     :  TOTAL=0.1 TRAFO=0.1 XC=0.0
   Size of expansion space: 40
   Lowest Energy          :     0.241676045169
   Maximum Energy change  :     0.000731888400 (vector 7)
   Maximum residual norm  :     0.000001035511

                       ****Iteration    2****
   Time for iteration     :  TOTAL=0.1 TRAFO=0.1 XC=0.0
   Size of expansion space: 50
   Lowest Energy          :     0.241675972871
   Maximum Energy change  :     0.000000725542 (vector 7)
   Maximum residual norm  :     0.000000000660

      *** CONVERGENCE OF RESIDUAL NORM REACHED ***

Storing the converged CI vectors               ... molecule.cis3

                 *** DAVIDSON DONE ***

------------------------------------
TD-DFT/TDA EXCITED STATES (TRIPLETS)
------------------------------------

the weight of the individual excitations are printed if larger than 1.0e-02

STATE 11:  E=   0.241676 au      6.576 eV    53041.7 cm**-1 <S**2> =   2.000000 Mult 3
     4a ->   5a  :     0.999238 (c= -0.99961898)

STATE 12:  E=   0.312799 au      8.512 eV    68651.4 cm**-1 <S**2> =   2.000000 Mult 3
     3a ->   5a  :     0.994033 (c=  0.99701186)

STATE 13:  E=   0.317643 au      8.644 eV    69714.6 cm**-1 <S**2> =   2.000000 Mult 3
     4a ->   6a  :     0.999026 (c=  0.99951310)

STATE 14:  E=   0.383866 au     10.446 eV    84248.8 cm**-1 <S**2> =   2.000000 Mult 3
     2a ->   5a  :     0.041631 (c=  0.20403692)
     3a ->   6a  :     0.954406 (c=  0.97693703)

STATE 15:  E=   0.455645 au     12.399 eV   100002.6 cm**-1 <S**2> =   2.000000 Mult 3
     2a ->   5a  :     0.953826 (c=  0.97664035)
     3a ->   6a  :     0.042669 (c= -0.20656419)

STATE 16:  E=   0.513719 au     13.979 eV   112748.2 cm**-1 <S**2> =   2.000000 Mult 3
     2a ->   6a  :     0.986518 (c=  0.99323620)

STATE 17:  E=   0.724655 au     19.719 eV   159043.5 cm**-1 <S**2> =   2.000000 Mult 3
     4a ->   7a  :     0.999033 (c=  0.99951648)

STATE 18:  E=   0.765037 au     20.818 eV   167906.1 cm**-1 <S**2> =   2.000000 Mult 3
     4a ->   8a  :     0.998483 (c=  0.99924128)

STATE 19:  E=   0.779752 au     21.218 eV   171135.7 cm**-1 <S**2> =   2.000000 Mult 3
     2a ->   8a  :     0.016745 (c= -0.12940312)
     3a ->   7a  :     0.978652 (c= -0.98926834)

STATE 20:  E=   0.821528 au     22.355 eV   180304.5 cm**-1 <S**2> =   2.000000 Mult 3
     1a ->   5a  :     0.048341 (c= -0.21986698)
     2a ->   7a  :     0.079171 (c= -0.28137351)
     3a ->   8a  :     0.859113 (c= -0.92688370)

Storing amplitudes in GBW file ... 
... GBW file created

-----------------------------
TD-DFT/TDA-EXCITATION SPECTRA
-----------------------------

Center of mass = (  0.0141,  0.6353,  0.0000)
Generating CIS transition densities           ... done

----------------------------------------------------------------------------------------------------
                     ABSORPTION SPECTRUM VIA TRANSITION ELECTRIC DIPOLE MOMENTS    
----------------------------------------------------------------------------------------------------
     Transition      Energy     Energy  Wavelength fosc(D2)      D2        DX        DY        DZ   
                      (eV)      (cm-1)    (nm)                 (au**2)    (au)      (au)      (au)  
----------------------------------------------------------------------------------------------------
  0-1A  ->  1-3A    6.576338   53041.7   188.5   0.000000000   0.00000   0.00000   0.00000   0.00000
  0-1A  ->  1-1A    7.264492   58592.1   170.7   0.015418557   0.08663   0.00000   0.00000   0.29433
  0-1A  ->  2-3A    8.511683   68651.4   145.7   0.000000000   0.00000   0.00000   0.00000   0.00000
  0-1A  ->  3-3A    8.643512   69714.6   143.4   0.000000000   0.00000   0.00000   0.00000   0.00000
  0-1A  ->  2-1A    9.159684   73877.8   135.4   0.000000000   0.00000   0.00000  -0.00000   0.00003
  0-1A  ->  3-1A    9.591552   77361.1   129.3   0.089353971   0.38025  -0.01359  -0.61649   0.00000
  0-1A  ->  4-3A   10.445514   84248.8   118.7   0.000000000   0.00000   0.00000   0.00000   0.00000
  0-1A  ->  4-1A   11.630461   93806.0   106.6   0.079513129   0.27905  -0.52813   0.01155  -0.00000
  0-1A  ->  5-3A   12.398743  100002.6   100.0   0.000000000   0.00000   0.00000   0.00000   0.00000
  0-1A  ->  5-1A   13.589606  109607.6    91.2   0.327024959   0.98224   0.99083  -0.02198  -0.00000
  0-1A  ->  6-3A   13.978992  112748.2    88.7   0.000000000   0.00000   0.00000   0.00000   0.00000
  0-1A  ->  6-1A   16.701144  134703.8    74.2   0.159395020   0.38956   0.01367   0.62399   0.00000
  0-1A  ->  7-3A   19.718874  159043.5    62.9   0.000000000   0.00000   0.00000   0.00000   0.00000
  0-1A  ->  7-1A   20.085342  161999.2    61.7   0.000000000   0.00000   0.00000   0.00000   0.00002
  0-1A  ->  8-3A   20.817705  167906.1    59.6   0.000000000   0.00000   0.00000   0.00000   0.00000
  0-1A  ->  9-3A   21.218122  171135.7    58.4   0.000000000   0.00000   0.00000   0.00000   0.00000
  0-1A  ->  8-1A   21.763668  175535.8    57.0   0.061614847   0.11556   0.00000   0.00000  -0.33994
  0-1A  -> 10-3A   22.354905  180304.5    55.5   0.000000000   0.00000   0.00000   0.00000   0.00000
  0-1A  ->  9-1A   23.266836  187659.7    53.3   0.140388745   0.24628   0.49615  -0.01097  -0.00000
  0-1A  -> 10-1A   23.684518  191028.5    52.3   0.001702474   0.00293  -0.00144  -0.05415   0.00000

----------------------------------------------------------------------------------------------------
                     ABSORPTION SPECTRUM VIA TRANSITION VELOCITY DIPOLE MOMENTS    
----------------------------------------------------------------------------------------------------
     Transition      Energy     Energy  Wavelength fosc(P2)      P2        PX        PY        PZ   
                      (eV)      (cm-1)    (nm)                 (au**2)    (au)      (au)      (au)  
----------------------------------------------------------------------------------------------------
  0-1A  ->  1-3A    6.576338   53041.7   188.5   0.000000000   0.00000   0.00000   0.00000   0.00000
  0-1A  ->  1-1A    7.264492   58592.1   170.7   0.113006648   0.04525  -0.00000  -0.00000  -0.21273
  0-1A  ->  2-3A    8.511683   68651.4   145.7   0.000000000   0.00000   0.00000   0.00000   0.00000
  0-1A  ->  3-3A    8.643512   69714.6   143.4   0.000000000   0.00000   0.00000   0.00000   0.00000
  0-1A  ->  2-1A    9.159684   73877.8   135.4   0.000000002   0.00000  -0.00000  -0.00000  -0.00003
  0-1A  ->  3-1A    9.591552   77361.1   129.3   0.123307964   0.06520   0.00560   0.25527  -0.00000
  0-1A  ->  4-3A   10.445514   84248.8   118.7   0.000000000   0.00000   0.00000   0.00000   0.00000
  0-1A  ->  4-1A   11.630461   93806.0   106.6   0.028396234   0.01821   0.13490  -0.00293   0.00000
  0-1A  ->  5-3A   12.398743  100002.6   100.0   0.000000000   0.00000   0.00000   0.00000   0.00000
  0-1A  ->  5-1A   13.589606  109607.6    91.2   0.249604657   0.18698  -0.43231   0.00961   0.00000
  0-1A  ->  6-3A   13.978992  112748.2    88.7   0.000000000   0.00000   0.00000   0.00000   0.00000
  0-1A  ->  6-1A   16.701144  134703.8    74.2   0.095576264   0.08799  -0.00651  -0.29656  -0.00000
  0-1A  ->  7-3A   19.718874  159043.5    62.9   0.000000000   0.00000   0.00000   0.00000   0.00000
  0-1A  ->  7-1A   20.085342  161999.2    61.7   0.000000000   0.00000  -0.00000  -0.00000  -0.00001
  0-1A  ->  8-3A   20.817705  167906.1    59.6   0.000000000   0.00000   0.00000   0.00000   0.00000
  0-1A  ->  9-3A   21.218122  171135.7    58.4   0.000000000   0.00000   0.00000   0.00000   0.00000
  0-1A  ->  8-1A   21.763668  175535.8    57.0   0.032740101   0.03928  -0.00000  -0.00000   0.19819
  0-1A  -> 10-3A   22.354905  180304.5    55.5   0.000000000   0.00000   0.00000   0.00000   0.00000
  0-1A  ->  9-1A   23.266836  187659.7    53.3   0.061189833   0.07848  -0.28007   0.00628   0.00000
  0-1A  -> 10-1A   23.684518  191028.5    52.3   0.009102297   0.01188   0.00256   0.10898  -0.00000

------------------------------------------------------------------------------------------
                     CD SPECTRUM VIA TRANSITION ELECTRIC DIPOLE MOMENTS    
------------------------------------------------------------------------------------------
     Transition      Energy     Energy  Wavelength    R        MX        MY        MZ   
                      (eV)      (cm-1)    (nm)   (1e40*cgs)   (au)      (au)      (au)  
------------------------------------------------------------------------------------------
  0-1A  ->  1-3A    6.576338   53041.7   188.5   -0.00000   0.00000   0.00000   0.00000
  0-1A  ->  1-1A    7.264492   58592.1   170.7   -0.00000   0.11401  -0.00251  -0.00000
  0-1A  ->  2-3A    8.511683   68651.4   145.7   -0.00000   0.00000   0.00000   0.00000
  0-1A  ->  3-3A    8.643512   69714.6   143.4   -0.00000   0.00000   0.00000   0.00000
  0-1A  ->  2-1A    9.159684   73877.8   135.4   -0.00000  -0.00347  -0.15738   0.00000
  0-1A  ->  3-1A    9.591552   77361.1   129.3    0.00000   0.00000   0.00000   0.00004
  0-1A  ->  4-3A   10.445514   84248.8   118.7   -0.00000   0.00000   0.00000   0.00000
  0-1A  ->  4-1A   11.630461   93806.0   106.6   -0.00000  -0.00000  -0.00000  -0.15489
  0-1A  ->  5-3A   12.398743  100002.6   100.0   -0.00000   0.00000   0.00000   0.00000
  0-1A  ->  5-1A   13.589606  109607.6    91.2    0.00000  -0.00000   0.00000  -0.07764
  0-1A  ->  6-3A   13.978992  112748.2    88.7   -0.00000   0.00000   0.00000   0.00000
  0-1A  ->  6-1A   16.701144  134703.8    74.2   -0.00000  -0.00000   0.00000  -0.00005
  0-1A  ->  7-3A   19.718874  159043.5    62.9   -0.00000   0.00000   0.00000   0.00000
  0-1A  ->  7-1A   20.085342  161999.2    61.7    0.00000  -0.00298  -0.13455   0.00000
  0-1A  ->  8-3A   20.817705  167906.1    59.6   -0.00000   0.00000   0.00000   0.00000
  0-1A  ->  9-3A   21.218122  171135.7    58.4   -0.00000   0.00000   0.00000   0.00000
  0-1A  ->  8-1A   21.763668  175535.8    57.0   -0.00000   0.10113  -0.00224  -0.00000
  0-1A  -> 10-3A   22.354905  180304.5    55.5   -0.00000   0.00000   0.00000   0.00000
  0-1A  ->  9-1A   23.266836  187659.7    53.3    0.00000  -0.00000   0.00000   0.25374
  0-1A  -> 10-1A   23.684518  191028.5    52.3   -0.00000  -0.00000  -0.00000  -0.00014

------------------------------------------------------------------------------------------
                     CD SPECTRUM VIA TRANSITION VELOCITY DIPOLE MOMENTS    
------------------------------------------------------------------------------------------
     Transition      Energy     Energy  Wavelength    R        MX        MY        MZ   
                      (eV)      (cm-1)    (nm)   (1e40*cgs)   (au)      (au)      (au)  
------------------------------------------------------------------------------------------
  0-1A  ->  1-3A    6.576338   53041.7   188.5    0.00000   0.00000   0.00000   0.00000
  0-1A  ->  1-1A    7.264492   58592.1   170.7   -0.00000   0.11401  -0.00251  -0.00000
  0-1A  ->  2-3A    8.511683   68651.4   145.7    0.00000   0.00000   0.00000   0.00000
  0-1A  ->  3-3A    8.643512   69714.6   143.4    0.00000   0.00000   0.00000   0.00000
  0-1A  ->  2-1A    9.159684   73877.8   135.4    0.00000  -0.00347  -0.15738   0.00000
  0-1A  ->  3-1A    9.591552   77361.1   129.3    0.00000   0.00000   0.00000   0.00004
  0-1A  ->  4-3A   10.445514   84248.8   118.7    0.00000   0.00000   0.00000   0.00000
  0-1A  ->  4-1A   11.630461   93806.0   106.6   -0.00000  -0.00000  -0.00000  -0.15489
  0-1A  ->  5-3A   12.398743  100002.6   100.0    0.00000   0.00000   0.00000   0.00000
  0-1A  ->  5-1A   13.589606  109607.6    91.2    0.00000  -0.00000   0.00000  -0.07764
  0-1A  ->  6-3A   13.978992  112748.2    88.7    0.00000   0.00000   0.00000   0.00000
  0-1A  ->  6-1A   16.701144  134703.8    74.2   -0.00000  -0.00000   0.00000  -0.00005
  0-1A  ->  7-3A   19.718874  159043.5    62.9    0.00000   0.00000   0.00000   0.00000
  0-1A  ->  7-1A   20.085342  161999.2    61.7    0.00000  -0.00298  -0.13455   0.00000
  0-1A  ->  8-3A   20.817705  167906.1    59.6    0.00000   0.00000   0.00000   0.00000
  0-1A  ->  9-3A   21.218122  171135.7    58.4    0.00000   0.00000   0.00000   0.00000
  0-1A  ->  8-1A   21.763668  175535.8    57.0   -0.00000   0.10113  -0.00224  -0.00000
  0-1A  -> 10-3A   22.354905  180304.5    55.5    0.00000   0.00000   0.00000   0.00000
  0-1A  ->  9-1A   23.266836  187659.7    53.3    0.00000  -0.00000   0.00000   0.25374
  0-1A  -> 10-1A   23.684518  191028.5    52.3   -0.00000  -0.00000  -0.00000  -0.00014

Total run time:        9.478 sec

           *** ORCA-CIS/TD-DFT FINISHED WITHOUT ERROR ***
-----------------------
CIS/TD-DFT TOTAL ENERGY
-----------------------

    E(SCF)  =    -76.360180582 Eh
    DE(CIS) =      0.266965194 Eh (Root  1)
    ----------------------------- ---------
    E(tot)  =    -76.093215389 Eh


Maximum memory used throughout the entire CIS-calculation: 4.1 MB
=> NOW LEAVING ORCA_CIS

-------------------------   --------------------
FINAL SINGLE POINT ENERGY       -76.093215388628
-------------------------   --------------------


------------------------------------------------------------------------------
                              ORCA PROPERTY CALCULATIONS
------------------------------------------------------------------------------

GBWName                                 ... molecule.gbw
Number of atoms                         ...      3
Number of basis functions               ...     24
Max core memory                         ...   4096 MB

Electric properties:
Dipole moment                           ... YES
Quadrupole moment                       ...  NO
Static polarizability (Dipole/Dipole)   ...  NO
Static polarizability (Dipole/Quad.)    ...  NO
Static polarizability (Quad./Quad.)     ...  NO
Static polarizability (Velocity)        ...  NO
Static hyperpolarizability              ...  NO

Atomic electric properties:
Dipole moment                           ...  NO
Quadrupole moment                       ...  NO
Static polarizability                   ...  NO

Choice of electric origin               ... Center of mass
Position of electric origin             ...     0.014050     0.635331     0.000000

General magnetic properties:
Magnetizability                         ...  NO

EPR properties:
g-Tensor (aka g-matrix)                 ...  NO
Zero-Field splitting spin-orbit         ...  NO
Zero-field splitting spin-spin          ...  NO
Hyperfine couplings                     ...  NO (   0 nuclei)
Quadrupole couplings                    ...  NO (   0 nuclei)
Contact density                         ...  NO (   0 nuclei)

NMR properties:
Chemical shifts                         ...  NO (   0 nuclei)
Spin-rotation constants                 ...  NO (   0 nuclei)
Spin-spin couplings                     ...  NO (   0 nuclei,    0 pairs)

Choice of magnetic origin               ... GIAO
Position of magnetic origin             ...     0.000000     0.000000     0.000000

Properties with geometric perturbations:
SCF Hessian                             ...  NO
IR spectrum                             ...  NO
VCD spectrum                            ...  NO
X-ray spectroscopy properties:
SCF XES/XAS/RIXS spectra                ...  NO

SCF SOC stabilization energy            ...  NO
Diagonal Born-Oppenheimer correction    ...  NO

-------------
DIPOLE MOMENT
-------------

Method             : SCF
Type of density    : Electron Density
Multiplicity       :   1
Irrep              :   0
Energy             :   -76.3601805824645936 Eh
Basis              : AO
                                X                 Y                 Z
Electronic contribution:      0.005255943       0.237620824       0.000000000
Nuclear contribution   :     -0.022311427      -1.008876028       0.000000000
                        -----------------------------------------
Total Dipole Moment    :     -0.017055484      -0.771255204       0.000000000
                        -----------------------------------------
Magnitude (a.u.)       :      0.771443763
Magnitude (Debye)      :      1.960854213



--------------------
Rotational spectrum 
--------------------
 
Rotational constants in cm-1:            25.623740            13.637713             8.900567 
Rotational constants in MHz :        768180.409733        408848.345759        266832.299804 

Dipole components along the rotational axes: 
x,y,z [a.u.] :     0.000001    -0.771444     0.000000 
x,y,z [Debye]:     0.000002    -1.960854     0.000000 

 

Dipole moment calculation done in   0.0 sec 

Maximum memory used throughout the entire PROP-calculation: 3.3 MB

--------------------------------
SUGGESTED CITATIONS FOR THIS RUN
--------------------------------

Below you find a list of papers that are relevant to this ORCA run
We neither can nor want to force you to cite these papers, but we appreciate if you do
You receive ORCA, which is the product of decades of hard work by many enthusiastic individuals, for free
The only thing we kindly ask in return is that you cite our papers,
We deeply appreciate it, if you show your appreciation for ORCA by not just citing the generic ORCA reference.

Please note that relegating all ORCA citations to the supporting information does *not* help us.
SI sections are not indexed - citations you put there will not count into any citation statistics
But we need these citations in order to attract the funding resources that allow us to do what we are doing

Therefore, if you are a happy ORCA user, please consider citing a few of the papers listed below in the main body of your paper

In addition to the list printed below, the program has created the file molecule.bibtex that contains the list in bibtex format
You can import this file easily into all common literature databanks and citation aid programs


List of essential papers. We consider these as the minimum necessary citations

  1. Neese, F.
     Software update: the ORCA program system, version 6.0
     WIRES Comput. Molec. Sci. 2025 15(1), e70019
     doi.org/10.1002/wcms.7019

List of papers to cite with high priority. The work reported in these papers was absolutely
necessary for this run to complete.
Our perspective: the developers of density functionals and basis sets usually get cited in chemistry papers
Good! But without the algorithms to do something with them, the functionals or basis sets would not do anything.
Hence, in our opinion, the algorithm design and method developments papers are equally worthy of getting cited

  1. Neese, F.; Olbrich, G.
     Efficient use of the resolution of the identity approximation in time-dependent density functional calculations with hybrid density functionals
     Chem. Phys. Lett. 2002 362 , 170-178
     doi.org/10.1016/s0009-2614(02)01053-9
  2. Neese, F.
     An improvement of the resolution of the identity approximation for the formation of the Coulomb matrix
     J. Comp. Chem. 2003 24(14), 1740-1747
     doi.org/10.1002/jcc.10318
  3. Neese, F.
     The SHARK Integral Generation and Digestion System
     J. Comp. Chem. 2022 44(3), 381
     doi.org/10.1002/jcc.26942

List of suggested additional citations. These are papers that are important in the 'surrounding' of 
of this run, or papers that preceded the highly important papers. If you like your results we are grateful for a citation.

  1. Neese, F.
     The ORCA program system
     WIRES Comput. Molec. Sci. 2012 2(1), 73-78
     doi.org/10.1002/wcms.81
  2. Neese, F.
     Software update: the ORCA program system, version 4.0
     WIRES Comput. Molec. Sci. 2018 8(1), 1-6
     doi.org/10.1002/wcms.1327
  3. Neese, F.; Wennmohs, F.; Becker, U.; Riplinger, C.
     The ORCA quantum chemistry program package
     J. Chem. Phys. 2020 152(22), 224108
     doi.org/10.1063/5.0004608
  4. Neese, F.
     Software update: The ORCA program system—Version 5.0
     WIRES Comput. Molec. Sci. 2022 12(1), e1606
     doi.org/10.1002/wcms.1606

List of optional additional citations

  1. Neese, F.
     Approximate second-order SCF convergence for spin unrestricted wavefunctions
     Chem. Phys. Lett. 2000 325(1-3), 93-98
     doi.org/10.1016/s0009-2614(00)00662-x

Timings for individual modules:

Sum of individual times          ...       10.526 sec (=   0.175 min)
Startup calculation              ...        0.164 sec (=   0.003 min)   1.6 %
SCF iterations                   ...        0.603 sec (=   0.010 min)   5.7 %
Property integrals               ...        0.135 sec (=   0.002 min)   1.3 %
Property calculations            ...        0.070 sec (=   0.001 min)   0.7 %
CIS module                       ...        9.554 sec (=   0.159 min)  90.8 %
                             ****ORCA TERMINATED NORMALLY****
TOTAL RUN TIME: 0 days 0 hours 0 minutes 10 seconds 727 msec
