
Host: RishiLaptop

Timers On : Mon Dec  8 20:01:36 2025
Timers Off: Mon Dec  8 20:01:51 2025

Wall Time:       14.88 seconds

                                                       Time (seconds)
Module                                       User      System        Wall        Calls

--------------------------------------------------------------------------------------

**************************************************************************************

Host: RishiLaptop

Timers On : Mon Dec  8 20:06:52 2025
Timers Off: Mon Dec  8 20:06:53 2025

Wall Time:        1.09 seconds

                                                       Time (seconds)
Module                                       User      System        Wall        Calls

--------------------------------------------------------------------------------------

**************************************************************************************

Host: RishiLaptop

Timers On : Mon Dec  8 20:07:32 2025
Timers Off: Mon Dec  8 20:07:33 2025

Wall Time:        1.15 seconds

                                                       Time (seconds)
Module                                       User      System        Wall        Calls

--------------------------------------------------------------------------------------

**************************************************************************************

Host: RishiLaptop

Timers On : Mon Dec  8 20:07:57 2025
Timers Off: Mon Dec  8 20:07:58 2025

Wall Time:        1.03 seconds

                                                       Time (seconds)
Module                                       User      System        Wall        Calls

--------------------------------------------------------------------------------------

**************************************************************************************

Host: RishiLaptop

Timers On : Mon Dec  8 20:08:13 2025
Timers Off: Mon Dec  8 20:08:15 2025

Wall Time:        1.12 seconds

                                                       Time (seconds)
Module                                       User      System        Wall        Calls

--------------------------------------------------------------------------------------

**************************************************************************************

Host: RishiLaptop

Timers On : Mon Dec  8 20:09:09 2025
Timers Off: Mon Dec  8 20:09:10 2025

Wall Time:        1.06 seconds

                                                       Time (seconds)
Module                                       User      System        Wall        Calls

--------------------------------------------------------------------------------------

**************************************************************************************

Host: RishiLaptop

Timers On : Mon Dec  8 20:09:22 2025
Timers Off: Mon Dec  8 20:09:23 2025

Wall Time:        1.09 seconds

                                                       Time (seconds)
Module                                       User      System        Wall        Calls

--------------------------------------------------------------------------------------

**************************************************************************************

Host: RishiLaptop

Timers On : Mon Dec  8 20:10:18 2025
Timers Off: Mon Dec  8 20:10:19 2025

Wall Time:        1.02 seconds

                                                       Time (seconds)
Module                                       User      System        Wall        Calls

--------------------------------------------------------------------------------------

**************************************************************************************

Host: RishiLaptop

Timers On : Mon Dec  8 20:11:17 2025
Timers Off: Mon Dec  8 20:11:18 2025

Wall Time:        0.99 seconds

                                                       Time (seconds)
Module                                       User      System        Wall        Calls

--------------------------------------------------------------------------------------

**************************************************************************************

Host: RishiLaptop

Timers On : Mon Dec  8 20:14:09 2025
Timers Off: Mon Dec  8 20:14:21 2025

Wall Time:       11.98 seconds

                                                       Time (seconds)
Module                                       User      System        Wall        Calls

--------------------------------------------------------------------------------------

**************************************************************************************

Host: RishiLaptop

Timers On : Mon Dec  8 20:22:05 2025
Timers Off: Mon Dec  8 20:22:15 2025

Wall Time:       10.59 seconds

                                                       Time (seconds)
Module                                       User      System        Wall        Calls

--------------------------------------------------------------------------------------

**************************************************************************************

Host: RishiLaptop

Timers On : Mon Dec  8 20:25:43 2025
Timers Off: Mon Dec  8 20:25:54 2025

Wall Time:       11.79 seconds

                                                       Time (seconds)
Module                                       User      System        Wall        Calls

--------------------------------------------------------------------------------------

**************************************************************************************

Host: RishiLaptop

Timers On : Mon Dec  8 20:28:33 2025
Timers Off: Mon Dec  8 20:28:46 2025

Wall Time:       12.78 seconds

                                                       Time (seconds)
Module                                       User      System        Wall        Calls

--------------------------------------------------------------------------------------

**************************************************************************************

Host: RishiLaptop

Timers On : Mon Dec  8 20:29:31 2025
Timers Off: Mon Dec  8 20:29:42 2025

Wall Time:       10.55 seconds

                                                       Time (seconds)
Module                                       User      System        Wall        Calls

--------------------------------------------------------------------------------------

**************************************************************************************

Host: RishiLaptop

Timers On : Mon Dec  8 20:31:18 2025
Timers Off: Mon Dec  8 20:31:28 2025

Wall Time:       10.33 seconds

                                                       Time (seconds)
Module                                       User      System        Wall        Calls

--------------------------------------------------------------------------------------

**************************************************************************************

Host: RishiLaptop

Timers On : Mon Dec  8 20:33:25 2025
Timers Off: Mon Dec  8 20:33:36 2025

Wall Time:       10.85 seconds

                                                       Time (seconds)
Module                                       User      System        Wall        Calls

--------------------------------------------------------------------------------------

**************************************************************************************

Host: RishiLaptop

Timers On : Mon Dec  8 20:35:03 2025
Timers Off: Mon Dec  8 20:35:15 2025

Wall Time:       11.95 seconds

                                                       Time (seconds)
Module                                       User      System        Wall        Calls

--------------------------------------------------------------------------------------

**************************************************************************************

Host: RishiLaptop

Timers On : Mon Dec  8 20:35:57 2025
Timers Off: Mon Dec  8 20:36:10 2025

Wall Time:       12.98 seconds

                                                       Time (seconds)
Module                                       User      System        Wall        Calls

--------------------------------------------------------------------------------------

**************************************************************************************

Host: RishiLaptop

Timers On : Mon Dec  8 20:43:28 2025
Timers Off: Mon Dec  8 20:43:29 2025

Wall Time:        1.01 seconds

                                                       Time (seconds)
Module                                       User      System        Wall        Calls

--------------------------------------------------------------------------------------

**************************************************************************************

Host: RishiLaptop

Timers On : Mon Dec  8 20:45:50 2025
Timers Off: Mon Dec  8 20:45:51 2025

Wall Time:        1.07 seconds

                                                       Time (seconds)
Module                                       User      System        Wall        Calls

--------------------------------------------------------------------------------------

**************************************************************************************

Host: RishiLaptop

Timers On : Mon Dec  8 21:51:52 2025
Timers Off: Mon Dec  8 21:51:52 2025

Wall Time:        0.57 seconds

                                                       Time (seconds)
Module                                       User      System        Wall        Calls

--------------------------------------------------------------------------------------

**************************************************************************************
